# Selection : patch(inlet)
# Faces  :    30
# Area   :    2.540000e-05
# Time        	areaAverage(p)	areaAverage(U)
0             	0.000000e+00	(1.000000e+01 0.000000e+00 0.000000e+00)
0.000119048   	1.559081e+04	(1.000000e+01 0.000000e+00 0.000000e+00)
0.00019685    	1.130003e+01	(1.000000e+01 0.000000e+00 0.000000e+00)
0.000282095   	5.431409e+00	(1.000000e+01 0.000000e+00 0.000000e+00)
0.00037125    	-8.325253e+00	(1.000000e+01 0.000000e+00 0.000000e+00)
0.00046565    	-6.131678e+00	(1.000000e+01 0.000000e+00 0.000000e+00)
0.000566011   	-6.344698e+00	(1.000000e+01 0.000000e+00 0.000000e+00)
0.000669682   	-5.745900e+00	(1.000000e+01 0.000000e+00 0.000000e+00)
0.000778174   	-5.930577e+00	(1.000000e+01 0.000000e+00 0.000000e+00)
0.00088928    	-5.300378e+00	(1.000000e+01 0.000000e+00 0.000000e+00)
0.00100316    	-5.160575e+00	(1.000000e+01 0.000000e+00 0.000000e+00)
0.00112001    	-5.056378e+00	(1.000000e+01 0.000000e+00 0.000000e+00)
0.00124001    	-4.830750e+00	(1.000000e+01 0.000000e+00 0.000000e+00)
0.00136339    	-4.804720e+00	(1.000000e+01 0.000000e+00 0.000000e+00)
0.00148855    	-4.565894e+00	(1.000000e+01 0.000000e+00 0.000000e+00)
0.00161752    	-4.462817e+00	(1.000000e+01 0.000000e+00 0.000000e+00)
0.00174849    	-4.173786e+00	(1.000000e+01 0.000000e+00 0.000000e+00)
0.00188158    	-3.945007e+00	(1.000000e+01 0.000000e+00 0.000000e+00)
0.00201689    	-3.663990e+00	(1.000000e+01 0.000000e+00 0.000000e+00)
0.00215453    	-3.533067e+00	(1.000000e+01 0.000000e+00 0.000000e+00)
0.00229217    	-3.237671e+00	(1.000000e+01 0.000000e+00 0.000000e+00)
0.00243231    	-3.144669e+00	(1.000000e+01 0.000000e+00 0.000000e+00)
0.00257245    	-2.874045e+00	(1.000000e+01 0.000000e+00 0.000000e+00)
0.00271259    	-2.832570e+00	(1.000000e+01 0.000000e+00 0.000000e+00)
0.00285549    	-2.658167e+00	(1.000000e+01 0.000000e+00 0.000000e+00)
0.00299838    	-2.580215e+00	(1.000000e+01 0.000000e+00 0.000000e+00)
0.00314127    	-2.544544e+00	(1.000000e+01 0.000000e+00 0.000000e+00)
0.0032872     	-2.446141e+00	(1.000000e+01 0.000000e+00 0.000000e+00)
0.00343313    	-2.412204e+00	(1.000000e+01 0.000000e+00 0.000000e+00)
0.00357906    	-2.447652e+00	(1.000000e+01 0.000000e+00 0.000000e+00)
0.00372838    	-2.405471e+00	(1.000000e+01 0.000000e+00 0.000000e+00)
0.00387771    	-2.499576e+00	(1.000000e+01 0.000000e+00 0.000000e+00)
0.00402703    	-2.504502e+00	(1.000000e+01 0.000000e+00 0.000000e+00)
0.00418018    	-2.547443e+00	(1.000000e+01 0.000000e+00 0.000000e+00)
0.00433334    	-2.608437e+00	(1.000000e+01 0.000000e+00 0.000000e+00)
0.00449074    	-2.672315e+00	(1.000000e+01 0.000000e+00 0.000000e+00)
0.00464815    	-2.751413e+00	(1.000000e+01 0.000000e+00 0.000000e+00)
0.00480556    	-2.835524e+00	(1.000000e+01 0.000000e+00 0.000000e+00)
0.00496788    	-2.935697e+00	(1.000000e+01 0.000000e+00 0.000000e+00)
0.00513021    	-3.063356e+00	(1.000000e+01 0.000000e+00 0.000000e+00)
0.00529254    	-3.209636e+00	(1.000000e+01 0.000000e+00 0.000000e+00)
0.00546066    	-3.347215e+00	(1.000000e+01 0.000000e+00 0.000000e+00)
0.00562878    	-3.512306e+00	(1.000000e+01 0.000000e+00 0.000000e+00)
0.00579691    	-3.666937e+00	(1.000000e+01 0.000000e+00 0.000000e+00)
0.00596503    	-3.843189e+00	(1.000000e+01 0.000000e+00 0.000000e+00)
0.00614047    	-4.003381e+00	(1.000000e+01 0.000000e+00 0.000000e+00)
0.0063159     	-4.213421e+00	(1.000000e+01 0.000000e+00 0.000000e+00)
0.00649133    	-4.356015e+00	(1.000000e+01 0.000000e+00 0.000000e+00)
0.00666677    	-4.548395e+00	(1.000000e+01 0.000000e+00 0.000000e+00)
0.0068422     	-4.695857e+00	(1.000000e+01 0.000000e+00 0.000000e+00)
0.00701763    	-4.855343e+00	(1.000000e+01 0.000000e+00 0.000000e+00)
0.00719307    	-5.005174e+00	(1.000000e+01 0.000000e+00 0.000000e+00)
0.00738019    	-5.161282e+00	(1.000000e+01 0.000000e+00 0.000000e+00)
0.00756732    	-5.304722e+00	(1.000000e+01 0.000000e+00 0.000000e+00)
0.00775445    	-5.476615e+00	(1.000000e+01 0.000000e+00 0.000000e+00)
0.00794158    	-5.601852e+00	(1.000000e+01 0.000000e+00 0.000000e+00)
0.00812871    	-5.779274e+00	(1.000000e+01 0.000000e+00 0.000000e+00)
0.00831584    	-5.912194e+00	(1.000000e+01 0.000000e+00 0.000000e+00)
0.00850297    	-6.093619e+00	(1.000000e+01 0.000000e+00 0.000000e+00)
0.0086901     	-6.224148e+00	(1.000000e+01 0.000000e+00 0.000000e+00)
0.00887723    	-6.373308e+00	(1.000000e+01 0.000000e+00 0.000000e+00)
0.00906436    	-6.494914e+00	(1.000000e+01 0.000000e+00 0.000000e+00)
0.00925148    	-6.609818e+00	(1.000000e+01 0.000000e+00 0.000000e+00)
0.00943861    	-6.723844e+00	(1.000000e+01 0.000000e+00 0.000000e+00)
0.00962574    	-6.816279e+00	(1.000000e+01 0.000000e+00 0.000000e+00)
0.00981287    	-6.910866e+00	(1.000000e+01 0.000000e+00 0.000000e+00)
0.01          	-6.971215e+00	(1.000000e+01 0.000000e+00 0.000000e+00)
0.0102041     	-7.086559e+00	(1.000000e+01 0.000000e+00 0.000000e+00)
0.0104125     	-7.148375e+00	(1.000000e+01 0.000000e+00 0.000000e+00)
0.0106209     	-7.177819e+00	(1.000000e+01 0.000000e+00 0.000000e+00)
0.0108294     	-7.355658e+00	(1.000000e+01 0.000000e+00 0.000000e+00)
0.0110378     	-7.391179e+00	(1.000000e+01 0.000000e+00 0.000000e+00)
0.0112512     	-7.615473e+00	(1.000000e+01 0.000000e+00 0.000000e+00)
0.0114645     	-7.716195e+00	(1.000000e+01 0.000000e+00 0.000000e+00)
0.0116779     	-7.968415e+00	(1.000000e+01 0.000000e+00 0.000000e+00)
0.0118913     	-8.028114e+00	(1.000000e+01 0.000000e+00 0.000000e+00)
0.0121047     	-8.229458e+00	(1.000000e+01 0.000000e+00 0.000000e+00)
0.0123181     	-8.257311e+00	(1.000000e+01 0.000000e+00 0.000000e+00)
0.0125315     	-8.344957e+00	(1.000000e+01 0.000000e+00 0.000000e+00)
0.0127511     	-8.318736e+00	(1.000000e+01 0.000000e+00 0.000000e+00)
0.0129708     	-8.374153e+00	(1.000000e+01 0.000000e+00 0.000000e+00)
0.0131905     	-8.379631e+00	(1.000000e+01 0.000000e+00 0.000000e+00)
0.0134101     	-8.478762e+00	(1.000000e+01 0.000000e+00 0.000000e+00)
0.0136298     	-8.524230e+00	(1.000000e+01 0.000000e+00 0.000000e+00)
0.0138495     	-8.674486e+00	(1.000000e+01 0.000000e+00 0.000000e+00)
0.0140691     	-8.746597e+00	(1.000000e+01 0.000000e+00 0.000000e+00)
0.0142888     	-8.959794e+00	(1.000000e+01 0.000000e+00 0.000000e+00)
0.0145084     	-8.986032e+00	(1.000000e+01 0.000000e+00 0.000000e+00)
0.0147281     	-9.173371e+00	(1.000000e+01 0.000000e+00 0.000000e+00)
0.0149478     	-9.137220e+00	(1.000000e+01 0.000000e+00 0.000000e+00)
0.0151674     	-9.205084e+00	(1.000000e+01 0.000000e+00 0.000000e+00)
0.0153871     	-9.090893e+00	(1.000000e+01 0.000000e+00 0.000000e+00)
0.0156068     	-9.057978e+00	(1.000000e+01 0.000000e+00 0.000000e+00)
0.0158264     	-8.968731e+00	(1.000000e+01 0.000000e+00 0.000000e+00)
0.0160461     	-8.957805e+00	(1.000000e+01 0.000000e+00 0.000000e+00)
0.0162657     	-8.922837e+00	(1.000000e+01 0.000000e+00 0.000000e+00)
0.0164854     	-8.987616e+00	(1.000000e+01 0.000000e+00 0.000000e+00)
0.0167051     	-8.935307e+00	(1.000000e+01 0.000000e+00 0.000000e+00)
0.0169247     	-9.044373e+00	(1.000000e+01 0.000000e+00 0.000000e+00)
0.0171444     	-8.863528e+00	(1.000000e+01 0.000000e+00 0.000000e+00)
0.0173641     	-8.953571e+00	(1.000000e+01 0.000000e+00 0.000000e+00)
0.0175837     	-8.595706e+00	(1.000000e+01 0.000000e+00 0.000000e+00)
0.0178034     	-8.716741e+00	(1.000000e+01 0.000000e+00 0.000000e+00)
0.018023      	-8.116280e+00	(1.000000e+01 0.000000e+00 0.000000e+00)
0.0182427     	-8.422239e+00	(1.000000e+01 0.000000e+00 0.000000e+00)
0.0184624     	-7.530965e+00	(1.000000e+01 0.000000e+00 0.000000e+00)
0.018682      	-8.206288e+00	(1.000000e+01 0.000000e+00 0.000000e+00)
0.0189017     	-6.974538e+00	(1.000000e+01 0.000000e+00 0.000000e+00)
0.0191214     	-7.959541e+00	(1.000000e+01 0.000000e+00 0.000000e+00)
0.019341      	-6.463569e+00	(1.000000e+01 0.000000e+00 0.000000e+00)
0.0195607     	-7.629443e+00	(1.000000e+01 0.000000e+00 0.000000e+00)
0.0197803     	-5.915754e+00	(1.000000e+01 0.000000e+00 0.000000e+00)
0.02          	-7.235583e+00	(1.000000e+01 0.000000e+00 0.000000e+00)
0.0202381     	-5.236317e+00	(1.000000e+01 0.000000e+00 0.000000e+00)
0.0204762     	-6.944765e+00	(1.000000e+01 0.000000e+00 0.000000e+00)
0.0207143     	-4.506172e+00	(1.000000e+01 0.000000e+00 0.000000e+00)
0.0209524     	-6.675234e+00	(1.000000e+01 0.000000e+00 0.000000e+00)
0.0211905     	-3.755672e+00	(1.000000e+01 0.000000e+00 0.000000e+00)
0.0214286     	-6.385141e+00	(1.000000e+01 0.000000e+00 0.000000e+00)
0.0216667     	-2.959714e+00	(1.000000e+01 0.000000e+00 0.000000e+00)
0.0218981     	-5.952268e+00	(1.000000e+01 0.000000e+00 0.000000e+00)
0.0221296     	-2.381626e+00	(1.000000e+01 0.000000e+00 0.000000e+00)
0.0223611     	-5.528625e+00	(1.000000e+01 0.000000e+00 0.000000e+00)
0.0225926     	-1.808798e+00	(1.000000e+01 0.000000e+00 0.000000e+00)
0.0228241     	-5.216549e+00	(1.000000e+01 0.000000e+00 0.000000e+00)
0.0230556     	-1.230261e+00	(1.000000e+01 0.000000e+00 0.000000e+00)
0.023287      	-3.936080e+00	(1.000000e+01 0.000000e+00 0.000000e+00)
0.0235185     	-1.412381e+00	(1.000000e+01 0.000000e+00 0.000000e+00)
0.02375       	-3.416121e+00	(1.000000e+01 0.000000e+00 0.000000e+00)
0.0239815     	-1.581721e+00	(1.000000e+01 0.000000e+00 0.000000e+00)
0.024213      	-2.932638e+00	(1.000000e+01 0.000000e+00 0.000000e+00)
0.0244355     	-1.403163e+00	(1.000000e+01 0.000000e+00 0.000000e+00)
0.0246581     	-2.601002e+00	(1.000000e+01 0.000000e+00 0.000000e+00)
0.0248807     	-1.333981e+00	(1.000000e+01 0.000000e+00 0.000000e+00)
0.0251033     	-2.363568e+00	(1.000000e+01 0.000000e+00 0.000000e+00)
0.0253259     	-1.232356e+00	(1.000000e+01 0.000000e+00 0.000000e+00)
0.0255484     	-2.233211e+00	(1.000000e+01 0.000000e+00 0.000000e+00)
0.025771      	-1.148610e+00	(1.000000e+01 0.000000e+00 0.000000e+00)
0.0259936     	-2.135236e+00	(1.000000e+01 0.000000e+00 0.000000e+00)
0.0262162     	-1.157244e+00	(1.000000e+01 0.000000e+00 0.000000e+00)
0.0264387     	-2.180277e+00	(1.000000e+01 0.000000e+00 0.000000e+00)
0.0266613     	-1.346988e+00	(1.000000e+01 0.000000e+00 0.000000e+00)
0.0268839     	-2.496171e+00	(1.000000e+01 0.000000e+00 0.000000e+00)
0.0271065     	-1.477662e+00	(1.000000e+01 0.000000e+00 0.000000e+00)
0.0273291     	-2.804047e+00	(1.000000e+01 0.000000e+00 0.000000e+00)
0.0275516     	-1.432241e+00	(1.000000e+01 0.000000e+00 0.000000e+00)
0.0277742     	-3.224468e+00	(1.000000e+01 0.000000e+00 0.000000e+00)
0.0279968     	-1.539892e+00	(1.000000e+01 0.000000e+00 0.000000e+00)
0.0282194     	-3.844545e+00	(1.000000e+01 0.000000e+00 0.000000e+00)
0.028442      	-1.639286e+00	(1.000000e+01 0.000000e+00 0.000000e+00)
0.0286645     	-4.259990e+00	(1.000000e+01 0.000000e+00 0.000000e+00)
0.0288871     	-1.638570e+00	(1.000000e+01 0.000000e+00 0.000000e+00)
0.0291097     	-4.459328e+00	(1.000000e+01 0.000000e+00 0.000000e+00)
0.0293323     	-1.523009e+00	(1.000000e+01 0.000000e+00 0.000000e+00)
0.0295548     	-4.537358e+00	(1.000000e+01 0.000000e+00 0.000000e+00)
0.0297774     	-1.428533e+00	(1.000000e+01 0.000000e+00 0.000000e+00)
0.03          	-4.680713e+00	(1.000000e+01 0.000000e+00 0.000000e+00)
0.0302222     	-1.544681e+00	(1.000000e+01 0.000000e+00 0.000000e+00)
0.0304444     	-4.669671e+00	(1.000000e+01 0.000000e+00 0.000000e+00)
0.0306667     	-1.829150e+00	(1.000000e+01 0.000000e+00 0.000000e+00)
0.0308889     	-4.734684e+00	(1.000000e+01 0.000000e+00 0.000000e+00)
0.0311111     	-2.286906e+00	(1.000000e+01 0.000000e+00 0.000000e+00)
0.0313333     	-4.971080e+00	(1.000000e+01 0.000000e+00 0.000000e+00)
0.0315556     	-2.991943e+00	(1.000000e+01 0.000000e+00 0.000000e+00)
0.0317778     	-5.488592e+00	(1.000000e+01 0.000000e+00 0.000000e+00)
0.0319833     	-4.045264e+00	(1.000000e+01 0.000000e+00 0.000000e+00)
0.0321742     	-6.028118e+00	(1.000000e+01 0.000000e+00 0.000000e+00)
0.0323562     	-5.282731e+00	(1.000000e+01 0.000000e+00 0.000000e+00)
0.0325261     	-6.663181e+00	(1.000000e+01 0.000000e+00 0.000000e+00)
0.0326922     	-6.389820e+00	(1.000000e+01 0.000000e+00 0.000000e+00)
0.032851      	-7.249554e+00	(1.000000e+01 0.000000e+00 0.000000e+00)
0.0330099     	-7.133211e+00	(1.000000e+01 0.000000e+00 0.000000e+00)
0.0331688     	-7.596634e+00	(1.000000e+01 0.000000e+00 0.000000e+00)
0.033324      	-7.486797e+00	(1.000000e+01 0.000000e+00 0.000000e+00)
0.0334793     	-7.639016e+00	(1.000000e+01 0.000000e+00 0.000000e+00)
0.0336345     	-7.394267e+00	(1.000000e+01 0.000000e+00 0.000000e+00)
0.0337861     	-7.253001e+00	(1.000000e+01 0.000000e+00 0.000000e+00)
0.0339376     	-6.882796e+00	(1.000000e+01 0.000000e+00 0.000000e+00)
0.0340892     	-6.604509e+00	(1.000000e+01 0.000000e+00 0.000000e+00)
0.0342408     	-6.258615e+00	(1.000000e+01 0.000000e+00 0.000000e+00)
0.0343923     	-5.838418e+00	(1.000000e+01 0.000000e+00 0.000000e+00)
0.0345399     	-5.509443e+00	(1.000000e+01 0.000000e+00 0.000000e+00)
0.0346875     	-5.145546e+00	(1.000000e+01 0.000000e+00 0.000000e+00)
0.034835      	-4.732754e+00	(1.000000e+01 0.000000e+00 0.000000e+00)
0.0349826     	-4.415636e+00	(1.000000e+01 0.000000e+00 0.000000e+00)
0.0351302     	-4.023402e+00	(1.000000e+01 0.000000e+00 0.000000e+00)
0.0352777     	-3.735178e+00	(1.000000e+01 0.000000e+00 0.000000e+00)
0.0354253     	-3.438434e+00	(1.000000e+01 0.000000e+00 0.000000e+00)
0.0355729     	-3.161007e+00	(1.000000e+01 0.000000e+00 0.000000e+00)
0.0357204     	-2.990029e+00	(1.000000e+01 0.000000e+00 0.000000e+00)
0.035868      	-2.716375e+00	(1.000000e+01 0.000000e+00 0.000000e+00)
0.0360156     	-2.572068e+00	(1.000000e+01 0.000000e+00 0.000000e+00)
0.0361632     	-2.463487e+00	(1.000000e+01 0.000000e+00 0.000000e+00)
0.0363166     	-2.299627e+00	(1.000000e+01 0.000000e+00 0.000000e+00)
0.0364701     	-2.245539e+00	(1.000000e+01 0.000000e+00 0.000000e+00)
0.0366236     	-2.092617e+00	(1.000000e+01 0.000000e+00 0.000000e+00)
0.0367771     	-2.052844e+00	(1.000000e+01 0.000000e+00 0.000000e+00)
0.0369305     	-1.834381e+00	(1.000000e+01 0.000000e+00 0.000000e+00)
0.037084      	-1.797138e+00	(1.000000e+01 0.000000e+00 0.000000e+00)
0.0372375     	-1.644005e+00	(1.000000e+01 0.000000e+00 0.000000e+00)
0.0373909     	-1.634421e+00	(1.000000e+01 0.000000e+00 0.000000e+00)
0.0375444     	-1.471048e+00	(1.000000e+01 0.000000e+00 0.000000e+00)
0.0376979     	-1.432629e+00	(1.000000e+01 0.000000e+00 0.000000e+00)
0.0378623     	-1.356414e+00	(1.000000e+01 0.000000e+00 0.000000e+00)
0.0380268     	-1.283193e+00	(1.000000e+01 0.000000e+00 0.000000e+00)
0.0381912     	-1.260684e+00	(1.000000e+01 0.000000e+00 0.000000e+00)
0.0383556     	-1.203499e+00	(1.000000e+01 0.000000e+00 0.000000e+00)
0.0385201     	-1.262814e+00	(1.000000e+01 0.000000e+00 0.000000e+00)
0.0386845     	-1.251717e+00	(1.000000e+01 0.000000e+00 0.000000e+00)
0.0388489     	-1.322564e+00	(1.000000e+01 0.000000e+00 0.000000e+00)
0.0390134     	-1.433594e+00	(1.000000e+01 0.000000e+00 0.000000e+00)
0.0391778     	-1.494773e+00	(1.000000e+01 0.000000e+00 0.000000e+00)
0.0393423     	-1.677829e+00	(1.000000e+01 0.000000e+00 0.000000e+00)
0.0395067     	-1.810902e+00	(1.000000e+01 0.000000e+00 0.000000e+00)
0.0396711     	-2.026420e+00	(1.000000e+01 0.000000e+00 0.000000e+00)
0.0398356     	-2.257790e+00	(1.000000e+01 0.000000e+00 0.000000e+00)
0.04          	-2.553395e+00	(1.000000e+01 0.000000e+00 0.000000e+00)
0.0401754     	-2.806033e+00	(1.000000e+01 0.000000e+00 0.000000e+00)
0.0403541     	-3.040394e+00	(1.000000e+01 0.000000e+00 0.000000e+00)
0.0405327     	-3.373730e+00	(1.000000e+01 0.000000e+00 0.000000e+00)
0.0407113     	-3.590840e+00	(1.000000e+01 0.000000e+00 0.000000e+00)
0.04089       	-3.881540e+00	(1.000000e+01 0.000000e+00 0.000000e+00)
0.0410722     	-4.103863e+00	(1.000000e+01 0.000000e+00 0.000000e+00)
0.0412544     	-4.307476e+00	(1.000000e+01 0.000000e+00 0.000000e+00)
0.0414366     	-4.448349e+00	(1.000000e+01 0.000000e+00 0.000000e+00)
0.0416188     	-4.558759e+00	(1.000000e+01 0.000000e+00 0.000000e+00)
0.041801      	-4.664618e+00	(1.000000e+01 0.000000e+00 0.000000e+00)
0.0419873     	-4.693650e+00	(1.000000e+01 0.000000e+00 0.000000e+00)
0.0421736     	-4.846481e+00	(1.000000e+01 0.000000e+00 0.000000e+00)
0.04236       	-4.975907e+00	(1.000000e+01 0.000000e+00 0.000000e+00)
0.0425463     	-5.168929e+00	(1.000000e+01 0.000000e+00 0.000000e+00)
0.0427327     	-5.446045e+00	(1.000000e+01 0.000000e+00 0.000000e+00)
0.042919      	-5.661257e+00	(1.000000e+01 0.000000e+00 0.000000e+00)
0.0431054     	-5.950682e+00	(1.000000e+01 0.000000e+00 0.000000e+00)
0.0432917     	-6.189899e+00	(1.000000e+01 0.000000e+00 0.000000e+00)
0.043478      	-6.455094e+00	(1.000000e+01 0.000000e+00 0.000000e+00)
0.0436699     	-6.673260e+00	(1.000000e+01 0.000000e+00 0.000000e+00)
0.0438617     	-6.901809e+00	(1.000000e+01 0.000000e+00 0.000000e+00)
0.0440535     	-7.090353e+00	(1.000000e+01 0.000000e+00 0.000000e+00)
0.0442453     	-7.266325e+00	(1.000000e+01 0.000000e+00 0.000000e+00)
0.0444371     	-7.420239e+00	(1.000000e+01 0.000000e+00 0.000000e+00)
0.044629      	-7.500863e+00	(1.000000e+01 0.000000e+00 0.000000e+00)
0.0448208     	-7.618630e+00	(1.000000e+01 0.000000e+00 0.000000e+00)
0.0450126     	-7.683111e+00	(1.000000e+01 0.000000e+00 0.000000e+00)
0.0452044     	-7.749810e+00	(1.000000e+01 0.000000e+00 0.000000e+00)
0.0453963     	-7.885722e+00	(1.000000e+01 0.000000e+00 0.000000e+00)
0.0455881     	-8.083635e+00	(1.000000e+01 0.000000e+00 0.000000e+00)
0.0457799     	-8.366754e+00	(1.000000e+01 0.000000e+00 0.000000e+00)
0.0459717     	-8.645092e+00	(1.000000e+01 0.000000e+00 0.000000e+00)
0.0461635     	-9.022250e+00	(1.000000e+01 0.000000e+00 0.000000e+00)
0.0463554     	-9.270567e+00	(1.000000e+01 0.000000e+00 0.000000e+00)
0.0465472     	-9.457221e+00	(1.000000e+01 0.000000e+00 0.000000e+00)
0.046739      	-9.518865e+00	(1.000000e+01 0.000000e+00 0.000000e+00)
0.0469308     	-9.520861e+00	(1.000000e+01 0.000000e+00 0.000000e+00)
0.0471227     	-9.372537e+00	(1.000000e+01 0.000000e+00 0.000000e+00)
0.0473145     	-9.288440e+00	(1.000000e+01 0.000000e+00 0.000000e+00)
0.0475063     	-9.101816e+00	(1.000000e+01 0.000000e+00 0.000000e+00)
0.0476981     	-8.990248e+00	(1.000000e+01 0.000000e+00 0.000000e+00)
0.04789       	-8.862474e+00	(1.000000e+01 0.000000e+00 0.000000e+00)
0.0480818     	-8.899576e+00	(1.000000e+01 0.000000e+00 0.000000e+00)
0.0482736     	-8.933847e+00	(1.000000e+01 0.000000e+00 0.000000e+00)
0.0484654     	-9.058690e+00	(1.000000e+01 0.000000e+00 0.000000e+00)
0.0486572     	-9.171704e+00	(1.000000e+01 0.000000e+00 0.000000e+00)
0.0488491     	-9.215735e+00	(1.000000e+01 0.000000e+00 0.000000e+00)
0.0490409     	-9.165895e+00	(1.000000e+01 0.000000e+00 0.000000e+00)
0.0492327     	-9.043919e+00	(1.000000e+01 0.000000e+00 0.000000e+00)
0.0494245     	-8.872580e+00	(1.000000e+01 0.000000e+00 0.000000e+00)
0.0496164     	-8.641869e+00	(1.000000e+01 0.000000e+00 0.000000e+00)
0.0498082     	-8.469867e+00	(1.000000e+01 0.000000e+00 0.000000e+00)
0.05          	-8.269061e+00	(1.000000e+01 0.000000e+00 0.000000e+00)
0.0502083     	-8.321881e+00	(1.000000e+01 0.000000e+00 0.000000e+00)
0.0504167     	-8.139363e+00	(1.000000e+01 0.000000e+00 0.000000e+00)
0.0506206     	-8.170396e+00	(1.000000e+01 0.000000e+00 0.000000e+00)
0.0508245     	-8.092530e+00	(1.000000e+01 0.000000e+00 0.000000e+00)
0.0510284     	-8.152091e+00	(1.000000e+01 0.000000e+00 0.000000e+00)
0.0512323     	-7.984494e+00	(1.000000e+01 0.000000e+00 0.000000e+00)
0.051441      	-7.911734e+00	(1.000000e+01 0.000000e+00 0.000000e+00)
0.0516498     	-7.602718e+00	(1.000000e+01 0.000000e+00 0.000000e+00)
0.0518585     	-7.446104e+00	(1.000000e+01 0.000000e+00 0.000000e+00)
0.0520673     	-7.196674e+00	(1.000000e+01 0.000000e+00 0.000000e+00)
0.052276      	-7.063623e+00	(1.000000e+01 0.000000e+00 0.000000e+00)
0.0524848     	-6.986034e+00	(1.000000e+01 0.000000e+00 0.000000e+00)
0.0526936     	-6.975436e+00	(1.000000e+01 0.000000e+00 0.000000e+00)
0.0529023     	-6.924777e+00	(1.000000e+01 0.000000e+00 0.000000e+00)
0.0531051     	-6.922159e+00	(1.000000e+01 0.000000e+00 0.000000e+00)
0.0533079     	-6.894224e+00	(1.000000e+01 0.000000e+00 0.000000e+00)
0.0535107     	-6.813217e+00	(1.000000e+01 0.000000e+00 0.000000e+00)
0.0537135     	-6.683363e+00	(1.000000e+01 0.000000e+00 0.000000e+00)
0.0539163     	-6.477044e+00	(1.000000e+01 0.000000e+00 0.000000e+00)
0.0541191     	-6.319876e+00	(1.000000e+01 0.000000e+00 0.000000e+00)
0.0543219     	-6.114277e+00	(1.000000e+01 0.000000e+00 0.000000e+00)
0.0545322     	-6.033482e+00	(1.000000e+01 0.000000e+00 0.000000e+00)
0.0547425     	-5.947377e+00	(1.000000e+01 0.000000e+00 0.000000e+00)
0.0549528     	-5.907645e+00	(1.000000e+01 0.000000e+00 0.000000e+00)
0.0551546     	-5.797394e+00	(1.000000e+01 0.000000e+00 0.000000e+00)
0.0553565     	-5.788823e+00	(1.000000e+01 0.000000e+00 0.000000e+00)
0.0555584     	-5.708031e+00	(1.000000e+01 0.000000e+00 0.000000e+00)
0.0557603     	-5.668888e+00	(1.000000e+01 0.000000e+00 0.000000e+00)
0.0559622     	-5.453606e+00	(1.000000e+01 0.000000e+00 0.000000e+00)
0.0561641     	-5.334092e+00	(1.000000e+01 0.000000e+00 0.000000e+00)
0.056366      	-5.066755e+00	(1.000000e+01 0.000000e+00 0.000000e+00)
0.0565679     	-4.941109e+00	(1.000000e+01 0.000000e+00 0.000000e+00)
0.0567698     	-4.759451e+00	(1.000000e+01 0.000000e+00 0.000000e+00)
0.0569717     	-4.673614e+00	(1.000000e+01 0.000000e+00 0.000000e+00)
0.0571735     	-4.603342e+00	(1.000000e+01 0.000000e+00 0.000000e+00)
0.0573754     	-4.513751e+00	(1.000000e+01 0.000000e+00 0.000000e+00)
0.0575773     	-4.508799e+00	(1.000000e+01 0.000000e+00 0.000000e+00)
0.0577792     	-4.456003e+00	(1.000000e+01 0.000000e+00 0.000000e+00)
0.0579811     	-4.403573e+00	(1.000000e+01 0.000000e+00 0.000000e+00)
0.058183      	-4.244905e+00	(1.000000e+01 0.000000e+00 0.000000e+00)
0.0583849     	-4.116810e+00	(1.000000e+01 0.000000e+00 0.000000e+00)
0.0585868     	-3.888856e+00	(1.000000e+01 0.000000e+00 0.000000e+00)
0.0587887     	-3.675384e+00	(1.000000e+01 0.000000e+00 0.000000e+00)
0.0589906     	-3.536198e+00	(1.000000e+01 0.000000e+00 0.000000e+00)
0.0591924     	-3.320234e+00	(1.000000e+01 0.000000e+00 0.000000e+00)
0.0593943     	-3.251459e+00	(1.000000e+01 0.000000e+00 0.000000e+00)
0.0595962     	-3.113425e+00	(1.000000e+01 0.000000e+00 0.000000e+00)
0.0597981     	-3.055993e+00	(1.000000e+01 0.000000e+00 0.000000e+00)
0.06          	-2.912260e+00	(1.000000e+01 0.000000e+00 0.000000e+00)
0.0602083     	-2.812726e+00	(1.000000e+01 0.000000e+00 0.000000e+00)
0.0604167     	-2.697783e+00	(1.000000e+01 0.000000e+00 0.000000e+00)
0.060625      	-2.387360e+00	(1.000000e+01 0.000000e+00 0.000000e+00)
0.0608333     	-2.158105e+00	(1.000000e+01 0.000000e+00 0.000000e+00)
0.0610417     	-1.878515e+00	(1.000000e+01 0.000000e+00 0.000000e+00)
0.06125       	-1.607690e+00	(1.000000e+01 0.000000e+00 0.000000e+00)
0.0614583     	-1.419568e+00	(1.000000e+01 0.000000e+00 0.000000e+00)
0.0616667     	-1.184876e+00	(1.000000e+01 0.000000e+00 0.000000e+00)
0.061875      	-1.049539e+00	(1.000000e+01 0.000000e+00 0.000000e+00)
0.0620833     	-8.095215e-01	(1.000000e+01 0.000000e+00 0.000000e+00)
0.0622917     	-6.301652e-01	(1.000000e+01 0.000000e+00 0.000000e+00)
0.0625        	-3.835190e-01	(1.000000e+01 0.000000e+00 0.000000e+00)
0.0627083     	-1.582139e-01	(1.000000e+01 0.000000e+00 0.000000e+00)
0.0629167     	8.187817e-02	(1.000000e+01 0.000000e+00 0.000000e+00)
0.063125      	3.546751e-01	(1.000000e+01 0.000000e+00 0.000000e+00)
0.0633333     	5.784660e-01	(1.000000e+01 0.000000e+00 0.000000e+00)
0.0635417     	8.868716e-01	(1.000000e+01 0.000000e+00 0.000000e+00)
0.06375       	9.436491e-01	(1.000000e+01 0.000000e+00 0.000000e+00)
0.0639583     	1.131977e+00	(1.000000e+01 0.000000e+00 0.000000e+00)
0.0641667     	1.167034e+00	(1.000000e+01 0.000000e+00 0.000000e+00)
0.064375      	1.261133e+00	(1.000000e+01 0.000000e+00 0.000000e+00)
0.0645833     	1.210268e+00	(1.000000e+01 0.000000e+00 0.000000e+00)
0.0647917     	1.365216e+00	(1.000000e+01 0.000000e+00 0.000000e+00)
0.065         	1.197398e+00	(1.000000e+01 0.000000e+00 0.000000e+00)
0.0652083     	1.375079e+00	(1.000000e+01 0.000000e+00 0.000000e+00)
0.0654167     	1.266807e+00	(1.000000e+01 0.000000e+00 0.000000e+00)
0.065625      	1.359612e+00	(1.000000e+01 0.000000e+00 0.000000e+00)
0.0658333     	1.251067e+00	(1.000000e+01 0.000000e+00 0.000000e+00)
0.0660417     	1.407830e+00	(1.000000e+01 0.000000e+00 0.000000e+00)
0.06625       	1.161074e+00	(1.000000e+01 0.000000e+00 0.000000e+00)
0.0664583     	1.217168e+00	(1.000000e+01 0.000000e+00 0.000000e+00)
0.0666667     	9.173370e-01	(1.000000e+01 0.000000e+00 0.000000e+00)
0.066875      	8.792473e-01	(1.000000e+01 0.000000e+00 0.000000e+00)
0.0670833     	4.624381e-01	(1.000000e+01 0.000000e+00 0.000000e+00)
0.0672917     	2.501102e-01	(1.000000e+01 0.000000e+00 0.000000e+00)
0.0675        	-3.070001e-01	(1.000000e+01 0.000000e+00 0.000000e+00)
0.0677083     	-6.886761e-01	(1.000000e+01 0.000000e+00 0.000000e+00)
0.0678993     	-1.329275e+00	(1.000000e+01 0.000000e+00 0.000000e+00)
0.0680744     	-1.691290e+00	(1.000000e+01 0.000000e+00 0.000000e+00)
0.0682494     	-2.213758e+00	(1.000000e+01 0.000000e+00 0.000000e+00)
0.0684086     	-2.476354e+00	(1.000000e+01 0.000000e+00 0.000000e+00)
0.0685677     	-2.965902e+00	(1.000000e+01 0.000000e+00 0.000000e+00)
0.0687269     	-3.046762e+00	(1.000000e+01 0.000000e+00 0.000000e+00)
0.068886      	-3.178398e+00	(1.000000e+01 0.000000e+00 0.000000e+00)
0.0690451     	-3.297654e+00	(1.000000e+01 0.000000e+00 0.000000e+00)
0.0691815     	-3.249857e+00	(1.000000e+01 0.000000e+00 0.000000e+00)
0.069318      	-3.247543e+00	(1.000000e+01 0.000000e+00 0.000000e+00)
0.0694544     	-3.099306e+00	(1.000000e+01 0.000000e+00 0.000000e+00)
0.0695908     	-2.969363e+00	(1.000000e+01 0.000000e+00 0.000000e+00)
0.0697272     	-2.836385e+00	(1.000000e+01 0.000000e+00 0.000000e+00)
0.0698636     	-2.609598e+00	(1.000000e+01 0.000000e+00 0.000000e+00)
0.07          	-2.317791e+00	(1.000000e+01 0.000000e+00 0.000000e+00)
0.0701389     	-2.239092e+00	(1.000000e+01 0.000000e+00 0.000000e+00)
0.0702778     	-1.986488e+00	(1.000000e+01 0.000000e+00 0.000000e+00)
0.0704147     	-1.816268e+00	(1.000000e+01 0.000000e+00 0.000000e+00)
0.0705516     	-1.633950e+00	(1.000000e+01 0.000000e+00 0.000000e+00)
0.0706886     	-1.381836e+00	(1.000000e+01 0.000000e+00 0.000000e+00)
0.0708235     	-1.265123e+00	(1.000000e+01 0.000000e+00 0.000000e+00)
0.0709585     	-1.158994e+00	(1.000000e+01 0.000000e+00 0.000000e+00)
0.0710934     	-8.741351e-01	(1.000000e+01 0.000000e+00 0.000000e+00)
0.0712284     	-7.703108e-01	(1.000000e+01 0.000000e+00 0.000000e+00)
0.0713654     	-6.848208e-01	(1.000000e+01 0.000000e+00 0.000000e+00)
0.0715025     	-3.914739e-01	(1.000000e+01 0.000000e+00 0.000000e+00)
0.0716395     	-2.402938e-01	(1.000000e+01 0.000000e+00 0.000000e+00)
0.0717789     	6.356318e-02	(1.000000e+01 0.000000e+00 0.000000e+00)
0.0719182     	8.458199e-02	(1.000000e+01 0.000000e+00 0.000000e+00)
0.0720576     	4.130764e-01	(1.000000e+01 0.000000e+00 0.000000e+00)
0.0721994     	5.621359e-01	(1.000000e+01 0.000000e+00 0.000000e+00)
0.0723412     	8.605052e-01	(1.000000e+01 0.000000e+00 0.000000e+00)
0.072483      	9.216038e-01	(1.000000e+01 0.000000e+00 0.000000e+00)
0.0726276     	1.186373e+00	(1.000000e+01 0.000000e+00 0.000000e+00)
0.0727722     	1.261202e+00	(1.000000e+01 0.000000e+00 0.000000e+00)
0.0729167     	1.573928e+00	(1.000000e+01 0.000000e+00 0.000000e+00)
0.0730643     	1.532755e+00	(1.000000e+01 0.000000e+00 0.000000e+00)
0.0732119     	1.743303e+00	(1.000000e+01 0.000000e+00 0.000000e+00)
0.0733627     	1.760092e+00	(1.000000e+01 0.000000e+00 0.000000e+00)
0.0735136     	1.916227e+00	(1.000000e+01 0.000000e+00 0.000000e+00)
0.0736644     	1.833034e+00	(1.000000e+01 0.000000e+00 0.000000e+00)
0.0738189     	1.883770e+00	(1.000000e+01 0.000000e+00 0.000000e+00)
0.0739735     	1.841012e+00	(1.000000e+01 0.000000e+00 0.000000e+00)
0.074128      	1.944420e+00	(1.000000e+01 0.000000e+00 0.000000e+00)
0.0742867     	1.693596e+00	(1.000000e+01 0.000000e+00 0.000000e+00)
0.0744454     	1.794225e+00	(1.000000e+01 0.000000e+00 0.000000e+00)
0.0746041     	1.463921e+00	(1.000000e+01 0.000000e+00 0.000000e+00)
0.0747628     	1.483898e+00	(1.000000e+01 0.000000e+00 0.000000e+00)
0.0749265     	9.879019e-01	(1.000000e+01 0.000000e+00 0.000000e+00)
0.0750901     	8.076408e-01	(1.000000e+01 0.000000e+00 0.000000e+00)
0.0752538     	2.226310e-01	(1.000000e+01 0.000000e+00 0.000000e+00)
0.0754174     	9.287600e-02	(1.000000e+01 0.000000e+00 0.000000e+00)
0.0755811     	-5.780736e-01	(1.000000e+01 0.000000e+00 0.000000e+00)
0.0757511     	-8.517558e-01	(1.000000e+01 0.000000e+00 0.000000e+00)
0.075921      	-1.362320e+00	(1.000000e+01 0.000000e+00 0.000000e+00)
0.076091      	-1.775134e+00	(1.000000e+01 0.000000e+00 0.000000e+00)
0.0762609     	-2.263576e+00	(1.000000e+01 0.000000e+00 0.000000e+00)
0.0764309     	-2.735454e+00	(1.000000e+01 0.000000e+00 0.000000e+00)
0.0766009     	-3.102623e+00	(1.000000e+01 0.000000e+00 0.000000e+00)
0.0767708     	-3.580788e+00	(1.000000e+01 0.000000e+00 0.000000e+00)
0.0769408     	-3.927736e+00	(1.000000e+01 0.000000e+00 0.000000e+00)
0.0771107     	-4.390517e+00	(1.000000e+01 0.000000e+00 0.000000e+00)
0.0772807     	-4.672934e+00	(1.000000e+01 0.000000e+00 0.000000e+00)
0.0774506     	-5.034680e+00	(1.000000e+01 0.000000e+00 0.000000e+00)
0.0776206     	-5.460061e+00	(1.000000e+01 0.000000e+00 0.000000e+00)
0.0777906     	-5.638119e+00	(1.000000e+01 0.000000e+00 0.000000e+00)
0.0779605     	-6.102431e+00	(1.000000e+01 0.000000e+00 0.000000e+00)
0.0781305     	-6.167443e+00	(1.000000e+01 0.000000e+00 0.000000e+00)
0.0783004     	-6.598106e+00	(1.000000e+01 0.000000e+00 0.000000e+00)
0.0784704     	-6.797418e+00	(1.000000e+01 0.000000e+00 0.000000e+00)
0.0786403     	-7.191500e+00	(1.000000e+01 0.000000e+00 0.000000e+00)