# vtk DataFile Version 2.0
tracks
ASCII
DATASET POLYDATA
POINTS 16940 float
-1.001 1e-07 0.0011 -1.0008 9.8738e-08 0.0011 -1.0006 9.74759e-08 0.0011 -1.0004 9.62139e-08
0.00110001 -1.0002 9.49518e-08 0.00110001 -1 9.36897e-08 0.00110001 -0.997031 7.49518e-08 0.00110005
-0.994062 5.49439e-08 0.00110008 -0.991093 3.49301e-08 0.00110011 -0.988124 1.49104e-08 0.00110014 -0.985913
2.14348e-28 0.00110017 -0.98248 -2.31572e-08 0.00110021 -0.979048 -4.6323e-08 0.00110024 -0.975615 -6.94977e-08
0.00110028 -0.972183 -9.2681e-08 0.00110032 -0.96875 -1.15873e-07 0.00110035 -0.9625 -1.58044e-07 0.00110042
-0.95625 -2.00307e-07 0.00110049 -0.95 -2.42597e-07 0.00110056 -0.94375 -2.84913e-07 0.00110063 -0.9375
-3.27255e-07 0.00110069 -0.93125 -3.78369e-07 0.00110077 -0.925 -4.41994e-07 0.00110086 -0.91875 -5.05659e-07
0.00110096 -0.9125 -5.69364e-07 0.00110105 -0.90625 -6.3311e-07 0.00110115 -0.9 -6.96549e-07 0.00110124
-0.89375 -7.60396e-07 0.00110133 -0.8875 -8.24285e-07 0.00110143 -0.88125 -8.88217e-07 0.00110152 -0.875
-9.52191e-07 0.00110162 -0.86875 -1.02733e-06 0.00110173 -0.8625 -1.10965e-06 0.00110187 -0.85625 -1.19202e-06
0.001102 -0.85 -1.27446e-06 0.00110214 -0.84375 -1.35696e-06 0.00110227 -0.8375 -1.4387e-06 0.00110241
-0.83125 -1.52137e-06 0.00110254 -0.825 -1.6041e-06 0.00110268 -0.81875 -1.68689e-06 0.00110281 -0.8125
-1.76975e-06 0.00110294 -0.80625 -1.85406e-06 0.00110309 -0.8 -1.93723e-06 0.00110324 -0.79375 -2.02047e-06
0.00110339 -0.7875 -2.10377e-06 0.00110353 -0.78125 -2.18714e-06 0.00110368 -0.775 -2.2691e-06 0.00110383
-0.76875 -2.3527e-06 0.00110398 -0.7625 -2.43637e-06 0.00110413 -0.75625 -2.52012e-06 0.00110427 -0.75
-2.60393e-06 0.00110442 -0.74375 -2.68266e-06 0.00110457 -0.7375 -2.75869e-06 0.0011047 -0.73125 -2.83479e-06
0.00110484 -0.725 -2.91095e-06 0.00110498 -0.71875 -2.98718e-06 0.00110512 -0.7125 -3.06117e-06 0.00110525
-0.70625 -3.13771e-06 0.00110539 -0.7 -3.21432e-06 0.00110553 -0.69375 -3.29101e-06 0.00110566 -0.6875
-3.36776e-06 0.0011058 -0.68125 -3.44821e-06 0.00110592 -0.675 -3.53701e-06 0.001106 -0.66875 -3.62589e-06
0.00110609 -0.6625 -3.71486e-06 0.00110618 -0.65625 -3.80391e-06 0.00110626 -0.65 -3.88967e-06 0.00110635
-0.64375 -3.97921e-06 0.00110644 -0.6375 -4.06883e-06 0.00110652 -0.63125 -4.15855e-06 0.00110661 -0.625
-4.24837e-06 0.0011067 -0.61875 -4.33903e-06 0.00110674 -0.6125 -4.42194e-06 0.0011067 -0.60625 -4.50493e-06
0.00110666 -0.6 -4.58802e-06 0.00110662 -0.59375 -4.67118e-06 0.00110658 -0.5875 -4.74938e-06 0.00110655
-0.58125 -4.83316e-06 0.00110651 -0.575 -4.91704e-06 0.00110647 -0.56875 -5.00102e-06 0.00110643 -0.5625
-5.08509e-06 0.00110639 -0.55625 -5.16177e-06 0.00110624 -0.55 -5.24107e-06 0.00110596 -0.54375 -5.32045e-06
0.00110568 -0.5375 -5.39992e-06 0.00110539 -0.53125 -5.47948e-06 0.00110511 -0.525 -5.55178e-06 0.00110482
-0.51875 -5.63281e-06 0.00110454 -0.5125 -5.71396e-06 0.00110425 -0.50625 -5.79521e-06 0.00110397 -0.5
-5.87658e-06 0.00110369 -0.49375 -5.9605e-06 0.00110321 -0.4875 -6.05343e-06 0.00110248 -0.48125 -6.14649e-06
0.00110174 -0.475 -6.23967e-06 0.00110101 -0.46875 -6.33298e-06 0.00110027 -0.4625 -6.41435e-06 0.00109954
-0.45625 -6.51097e-06 0.0010988 -0.45 -6.60778e-06 0.00109806 -0.44375 -6.70476e-06 0.00109733 -0.4375
-6.80193e-06 0.00109659 -0.431249 -6.91853e-06 0.00109548 -0.424999 -7.06538e-06 0.0010938 -0.418749 -7.21251e-06
0.00109212 -0.412499 -7.35991e-06 0.00109045 -0.406249 -7.50758e-06 0.00108878 -0.399998 -7.63274e-06 0.00108711
-0.393747 -7.78809e-06 0.00108543 -0.387496 -7.94397e-06 0.00108377 -0.381246 -8.10037e-06 0.0010821 -0.374995
-8.2573e-06 0.00108044 -0.368743 -8.44496e-06 0.00107794 -0.36249 -8.66924e-06 0.00107417 -0.356238 -8.89446e-06
0.00107042 -0.349986 -9.12064e-06 0.00106668 -0.343734 -9.34777e-06 0.00106295 -0.337478 -9.52424e-06 0.00105923
-0.331222 -9.77248e-06 0.00105551 -0.324967 -1.00231e-05 0.0010518 -0.318711 -1.02762e-05 0.00104811 -0.312455
-1.05317e-05 0.00104443 -0.306193 -1.08391e-05 0.0010388 -0.299931 -1.12278e-05 0.0010299 -0.293669 -1.16213e-05
0.00102109 -0.287406 -1.20196e-05 0.00101235 -0.281144 -1.24228e-05 0.00100369 -0.274873 -1.26795e-05 0.000995068
-0.268602 -1.31556e-05 0.000986471 -0.262332 -1.36428e-05 0.000977945 -0.256061 -1.41411e-05 0.00096949 -0.24979
-1.46507e-05 0.000961105 -0.243518 -1.53111e-05 0.00094802 -0.237246 -1.62889e-05 0.000928294 -0.230975 -1.7291e-05
0.000908992 -0.224703 -1.83182e-05 0.000890106 -0.218431 -1.93712e-05 0.000871628 -0.215291 -1.999e-05 0.000862516
-0.21215 -2.08713e-05 0.000851764 -0.20901 -2.17878e-05 0.000841138 -0.205869 -2.27403e-05 0.000830637 -0.202729
-2.37297e-05 0.000820259 -0.19959 -2.39299e-05 0.000810167 -0.196451 -2.50178e-05 0.000799999 -0.193312 -2.61469e-05
0.000789947 -0.190173 -2.73182e-05 0.00078001 -0.187035 -2.85325e-05 0.000770186 -0.183908 -2.95195e-05 0.000758906
-0.180782 -3.08622e-05 0.000745516 -0.177656 -3.22196e-05 0.000732361 -0.17453 -3.3592e-05 0.000719437 -0.171404
-3.49799e-05 0.000706741 -0.168295 -3.50811e-05 0.000694429 -0.165187 -3.65584e-05 0.000682156 -0.162078 -3.7977e-05
0.000670106 -0.15897 -3.93352e-05 0.000658275 -0.155861 -4.06314e-05 0.000646659 -0.152748 -4.17713e-05 0.000631761
-0.149635 -4.30426e-05 0.00061377 -0.146522 -4.42818e-05 0.000596297 -0.143409 -4.54878e-05 0.000579325 -0.140295
-4.66596e-05 0.00056284 -0.137178 -4.66833e-05 0.00054651 -0.13406 -4.80267e-05 0.000530775 -0.130942 -4.94301e-05
0.000515505 -0.127824 -5.0896e-05 0.000500686 -0.124707 -5.24267e-05 0.000486306 -0.121535 -5.41436e-05 0.000470044
-0.118364 -5.66701e-05 0.000467729 -0.115193 -5.968e-05 0.000464971 -0.112022 -6.31982e-05 0.000461747 -0.108843
-6.72609e-05 0.000458024 -0.105633 -6.72609e-05 0.000458024 -0.102423 -7.58206e-05 0.000451469 -0.0992123 -8.62248e-05
0.000443501 -0.096002 -9.86262e-05 0.000434004 -0.0927866 -0.000113213 0.000422834 -0.0897559 -0.000113213 0.000422834
-0.0867254 -0.00014332 0.00040682 -0.0836951 -0.000184223 0.000385066 -0.0806652 -0.000240215 0.000355285 -0.0773753
-0.000324701 0.000310349 -1.001 1e-07 0.0537316 -1.0009 8e-08 0.0537316 -1.00079 5.99712e-08
0.0537317 -1.00069 3.99137e-08 0.0537317 -1.00059 1.98274e-08 0.0537318 -1.00049 3.07055e-28 0.0537318
-1.00039 -1.91887e-08 0.0537319 -1.00029 -3.84035e-08 0.0537319 -1.0002 -5.76445e-08 0.053732 -1.0001
-7.69116e-08 0.053732 -1 -9.62048e-08 0.0537321 -0.99375 -1.33189e-06 0.0537352 -0.9875 -2.58437e-06
0.0537383 -0.98125 -3.8587e-06 0.0537413 -0.975 -5.15831e-06 0.0537444 -0.96875 -6.48323e-06 0.0537475
-0.9625 -7.8318e-06 0.0537506 -0.95625 -9.24578e-06 0.0537538 -0.95 -1.07241e-05 0.0537573 -0.94375
-1.22667e-05 0.0537609 -0.9375 -1.38693e-05 0.0537647 -0.93125 -1.55222e-05 0.0537685 -0.925 -1.72518e-05
0.0537724 -0.91875 -1.90571e-05 0.0537766 -0.9125 -2.09393e-05 0.053781 -0.90625 -2.28986e-05 0.0537857
-0.9 -2.49316e-05 0.0537907 -0.89375 -2.70232e-05 0.0537959 -0.8875 -2.91696e-05 0.0538014 -0.88125
-3.1371e-05 0.0538071 -0.875 -3.36327e-05 0.053813 -0.86875 -3.59576e-05 0.053819 -0.8625 -3.8332e-05
0.0538252 -0.85625 -4.07326e-05 0.0538315 -0.85 -4.31491e-05 0.053838 -0.84375 -4.55815e-05 0.0538446
-0.8375 -4.80241e-05 0.0538514 -0.83125 -5.04592e-05 0.0538582 -0.825 -5.28802e-05 0.0538651 -0.81875
-5.52871e-05 0.053872 -0.8125 -5.76902e-05 0.053879 -0.80625 -6.00987e-05 0.0538861 -0.8 -6.25079e-05
0.0538931 -0.79375 -6.4897e-05 0.0539002 -0.7875 -6.72578e-05 0.0539072 -0.78125 -6.95904e-05 0.0539141
-0.775 -7.18903e-05 0.053921 -0.76875 -7.41612e-05 0.0539277 -0.7625 -7.63954e-05 0.0539343 -0.75625
-7.85929e-05 0.0539407 -0.75 -8.07581e-05 0.053947 -0.74375 -8.28924e-05 0.0539533 -0.7375 -8.50205e-05
0.0539596 -0.73125 -8.71301e-05 0.0539656 -0.725 -8.92206e-05 0.0539714 -0.71875 -9.12921e-05 0.053977
-0.7125 -9.33392e-05 0.0539822 -0.70625 -9.54209e-05 0.0539872 -0.7 -9.7528e-05 0.0539917 -0.69375
-9.96603e-05 0.0539959 -0.6875 -0.000101819 0.0539998 -0.68125 -0.000104 0.0540036 -0.675 -0.000106238
0.0540072 -0.66875 -0.000108518 0.0540104 -0.6625 -0.000110835 0.0540132 -0.65625 -0.000113189 0.0540155
-0.65 -0.00011558 0.0540173 -0.64375 -0.000117988 0.0540184 -0.6375 -0.000120402 0.0540189 -0.63125
-0.000122822 0.0540188 -0.625 -0.00012525 0.0540182 -0.61875 -0.000127691 0.0540173 -0.6125 -0.000130098
0.0540159 -0.60625 -0.000132462 0.0540138 -0.6 -0.000134787 0.0540108 -0.59375 -0.000137072 0.0540069
-0.5875 -0.000139321 0.0540022 -0.58125 -0.000141557 0.0539964 -0.575 -0.000143765 0.0539893 -0.56875
-0.000145944 0.0539811 -0.5625 -0.00014809 0.053972 -0.55625 -0.000150206 0.0539621 -0.55 -0.000152353
0.0539514 -0.54375 -0.000154512 0.0539395 -0.5375 -0.000156684 0.0539259 -0.53125 -0.00015887 0.0539109
-0.525 -0.000161088 0.0538942 -0.51875 -0.000163359 0.0538754 -0.5125 -0.000165661 0.0538544 -0.50625
-0.000167993 0.0538313 -0.5 -0.000170351 0.0538063 -0.49375 -0.000172754 0.0537802 -0.4875 -0.000175254
0.0537524 -0.48125 -0.000177814 0.053722 -0.475 -0.00018044 0.0536885 -0.46875 -0.000183131 0.0536519
-0.4625 -0.000185929 0.0536122 -0.456249 -0.000188909 0.053568 -0.449999 -0.000192017 0.0535193 -0.443749
-0.000195255 0.053466 -0.437499 -0.000198623 0.053409 -0.431248 -0.00020216 0.0533496 -0.424998 -0.000205983
0.0532866 -0.418747 -0.000209993 0.0532183 -0.412496 -0.000214192 0.0531431 -0.406245 -0.000218581 0.053061
-0.399993 -0.000223275 0.0529721 -0.393741 -0.000228324 0.0528727 -0.38749 -0.000233609 0.0527628 -0.381238
-0.000239132 0.0526422 -0.374985 -0.000244884 0.052514 -0.36873 -0.000250938 0.0523802 -0.362474 -0.000257542
0.0522379 -0.356219 -0.000264412 0.0520843 -0.349964 -0.000271602 0.0519141 -0.343708 -0.000279119 0.0517271
-0.337445 -0.000287308 0.0515236 -0.331184 -0.000296352 0.0512924 -0.324924 -0.000305914 0.0510329 -0.318665
-0.000316003 0.0507452 -0.312397 -0.000326513 0.050442 -0.306124 -0.000337535 0.0501254 -0.299853 -0.000350298
0.0497862 -0.293582 -0.000363645 0.0494247 -0.287315 -0.000377613 0.0490181 -0.281034 -0.000392253 0.048564
[...]
POINT_DATA 16940
FIELD attributes 3
age 1 16940 float
0 1.00091e-05 2.00181e-05 3.00272e-05 4.00362e-05 5.00453e-05 0.000198633 0.00034723 0.000495826 0.000644422 0.000755062
0.000926857 0.00109865 0.00127045 0.00144224 0.00161404 0.00192684 0.00223964 0.00255244 0.00286524 0.00317804
0.00349086 0.00380371 0.00411655 0.0044294 0.00474224 0.00505509 0.00536794 0.00568078 0.00599363 0.00630648
0.00661935 0.00693225 0.00724514 0.00755804 0.00787094 0.00818384 0.00849674 0.00880964 0.00912254 0.00943544
0.00974837 0.0100613 0.0103743 0.0106873 0.0110002 0.0113132 0.0116261 0.0119391 0.0122521 0.012565
0.012878 0.013191 0.0135041 0.0138171 0.0141301 0.0144432 0.0147562 0.0150692 0.0153823 0.0156953
0.0160083 0.0163215 0.0166346 0.0169477 0.0172608 0.0175739 0.017887 0.0182001 0.0185132 0.0188263
0.0191395 0.0194527 0.0197659 0.0200791 0.0203923 0.0207055 0.0210187 0.0213319 0.0216451 0.0219583
0.0222715 0.0225848 0.0228981 0.0232114 0.0235247 0.023838 0.0241513 0.0244646 0.0247779 0.0250912
0.0254046 0.025718 0.0260315 0.0263449 0.0266583 0.0269718 0.0272852 0.0275987 0.0279121 0.0282255
0.028539 0.0288527 0.0291663 0.0294799 0.0297935 0.0301071 0.0304208 0.0307344 0.031048 0.0313617
0.0316755 0.0319894 0.0323033 0.0326172 0.0329311 0.0332452 0.0335593 0.0338734 0.0341874 0.0345015
0.034816 0.0351307 0.0354454 0.03576 0.0360746 0.0363897 0.0367047 0.0370198 0.0373348 0.0376498
0.0379649 0.0382816 0.0385981 0.0389146 0.039231 0.0393894 0.0395479 0.0397063 0.0398648 0.0400232
0.0401815 0.0403398 0.0404981 0.0406565 0.0408147 0.0409723 0.04113 0.0412876 0.0414453 0.0416029
0.0417595 0.0419161 0.0420728 0.0422294 0.042386 0.0425428 0.0426998 0.0428568 0.0430137 0.0431706
0.0433276 0.0434847 0.0436417 0.0437987 0.0439557 0.0441154 0.0442778 0.0444401 0.0446024 0.044765
0.0449295 0.0450939 0.0452581 0.0454223 0.0455865 0.0457426 0.0459136 0.0461023 0.0463125 0.04657
0 5.26571e-06 1.05316e-05 1.57978e-05 2.10642e-05 2.62554e-05 3.12726e-05 3.629e-05 4.13076e-05 4.63254e-05
5.13433e-05 0.000372311 0.000693379 0.00101455 0.00133584 0.00165725 0.00197877 0.00230043 0.00262224 0.00294419
0.00326628 0.00358852 0.00391089 0.0042334 0.00455607 0.00487888 0.00520185 0.00552497 0.00584826 0.00617171
0.00649532 0.00681908 0.007143 0.00746711 0.00779139 0.00811585 0.00844049 0.00876532 0.00909034 0.00941555
0.00974094 0.0100665 0.0103923 0.0107182 0.0110444 0.0113707 0.0116972 0.0120239 0.0123508 0.0126779
0.0130052 0.0133327 0.0136604 0.0139884 0.0143165 0.0146449 0.0149735 0.0153022 0.0156313 0.0159605
0.01629 0.0166197 0.0169497 0.0172799 0.0176103 0.0179409 0.0182718 0.018603 0.0189343 0.0192659
0.0195978 0.0199299 0.0202623 0.020595 0.020928 0.0212612 0.0215947 0.0219285 0.0222626 0.0225971
0.0229318 0.0232669 0.0236024 0.0239382 0.0242743 0.0246108 0.0249477 0.025285 0.0256226 0.0259607
0.0262992 0.0266381 0.0269774 0.0273173 0.0276576 0.0279984 0.0283398 0.0286817 0.0290242 0.0293674
0.0297111 0.0300555 0.0304004 0.0307461 0.0310925 0.0314397 0.0317877 0.0321365 0.0324863 0.032837
0.0331886 0.033541 0.0338944 0.0342487 0.0346041 0.0349609 0.0353191 0.0356788 0.0360401 0.0364028
0.0367672 0.037133 0.0374998 0.0378679 0.0382377 0.0386104 0.038987 0.0393647 0.0397438 0.0401241
0.0405085 0.0407007 0.0408934 0.0410864 0.0412798 0.0414748 0.0416697 0.0418647 0.0420599 0.0422554
0.0424521 0.0426484 0.0428449 0.0430418 0.0432387 0.0434378 0.0436346 0.043831 0.0440275 0.0442238
0.0444221 0.0445326 0.0446448 0.0447551 0.0448655 0.0449601 0.045049 0.045138 0.0452271 0.0453163
0.0454059 0.0455952 0.0457844 0.0459739 0.0461636 0.0463549 0.0465686 0.0467821 0.046996 0.0472365
0.0475131 0.0477848 0.0480281 0.0482819 0.0485189 0.0487563 0.0489686 0.0491386 0.0493133 0.0495008
0.0496522 0.0498838 0.0501438 0.05044 0.0507848 0.0512142 0.0517615 0.0522084 0.0526642 0.053161
0.0551274 0.0555115 0.0559243 0.0563173 0.0566948 0.0618768 0.0618768 0.0618768 0.0618768 0.0618768
0.0618768 0.0620156 0.0621637 0.0623201 0.0624841 0.062732 0 4.50311e-06 9.00624e-06 1.35094e-05
1.80126e-05 2.25109e-05 2.82974e-05 3.4084e-05 3.98706e-05 4.56573e-05 5.14439e-05 0.000372978 0.000694625 0.00101639
0.00133826 0.00166028 0.00198244 0.00230476 0.00262725 0.0029499 0.00327272 0.0035957 0.00391883 0.00424212
0.00456556 0.00488915 0.0052129 0.0055368 0.00586085 0.00618507 0.00650946 0.00683401 0.00715873 0.00748364
0.00780872 0.00813397 0.00845939 0.00878499 0.00911076 0.00943671 0.00976284 0.0100892 0.0104157 0.0107423
0.0110692 0.0113962 0.0117234 0.0120508 0.0123784 0.0127061 0.0130341 0.0133622 0.0136905 0.0140191
0.0143478 0.0146767 0.0150058 0.0153352 0.0156647 0.0159945 0.0163244 0.0166546 0.016985 0.0173157
0.0176465 0.0179776 0.0183089 0.0186404 0.0189722 0.0193043 0.0196366 0.0199691 0.0203019 0.020635
0.0209683 0.0213019 0.0216359 0.0219701 0.0223048 0.0226397 0.022975 0.0233106 0.0236466 0.023983
0.0243197 0.0246569 0.0249944 0.0253325 0.0256711 0.0260102 0.0263497 0.0266897 0.0270302 0.0273713
0.027713 0.0280554 0.0283984 0.0287423 0.0290871 0.0294327 0.029779 0.0301261 0.0304741 0.0308231
0.031173 0.0315241 0.0318766 0.0322309 0.0325867 0.0329437 0.0333023 0.0336624 0.0340243 0.0343879
0.0347533 0.0351214 0.0354927 0.0358681 0.0362464 0.036627 0.0370123 0.0373996 0.0377903 0.0381844
0.0385818 0.0389888 0.0391118 0.0392352 0.0393589 0.0394828 0.0395721 0.0396633 0.0397546 0.0398461
0.0399378 0.0400304 0.0402436 0.040458 0.0406736 0.0408903 0.0411158 0.0413375 0.0415594 0.0417814
0.0420036 0.0422365 0.0423876 0.0425462 0.0427073 0.0428613 0.0429813 0.0430659 0.0431506 0.0432352
0.0433199 0.0434066 0.0436496 0.0439159 0.0442424 0.0446133 0.0449296 0.0451133 0.0452674 0.0454263
0.0455901 0.0457299 0.0459726 0.0462303 0.0465048 0.046801 0.0471399 0.0478349 0.0482055 0.0485631
0.0489511 0.0496048 0.0498403 0.0500906 0.0503574 0.0506421 0.050964 0.0518202 0.0523188 0.0528886
0.0535531 0.0564964 0 4.16478e-06 8.32958e-06 1.24944e-05 1.66592e-05 2.08201e-05 2.69592e-05 3.30985e-05
3.92377e-05 4.5377e-05 5.15164e-05 0.000373505 0.000695614 0.00101784 0.00134019 0.00166266 0.00198526 0.00230801
0.00263091 0.00295397 0.00327719 0.00360057 0.00392409 0.00424776 0.00457158 0.00489553 0.00521964 0.0055439
0.00586831 0.00619287 0.00651759 0.00684246 0.0071675 0.0074927 0.00781807 0.0081436 0.00846931 0.00879518
0.00912123 0.00944745 0.00977384 0.0101004 0.0104271 0.0107541 0.0110812 0.0114084 0.0117359 0.0120635
0.0123913 0.0127193 0.0130475 0.0133759 0.0137044 0.0140332 0.0143622 0.0146914 0.0150207 0.0153503
0.0156802 0.0160102 0.0163405 0.0166709 0.0170017 0.0173326 0.0176638 0.0179952 0.0183269 0.0186588
0.018991 0.0193235 0.0196562 0.0199892 0.0203226 0.0206562 0.0209901 0.0213244 0.0216589 0.0219939
0.0223293 0.022665 0.0230011 0.0233376 0.0236746 0.024012 0.0243499 0.0246883 0.0250272 0.0253667
0.0257068 0.0260475 0.0263888 0.0267307 0.0270734 0.0274168 0.0277611 0.0281062 0.0284522 0.0287994
0.0291477 0.029497 0.0298475 0.0301993 0.0305526 0.0309075 0.031264 0.0316223 0.0319826 0.0323453
0.0327105 0.0330781 0.0331941 0.0332451 0.0332962 0.0333473 0.0333984 0.0334496 0.0338235 0.0342013
0.0345833 0.0349693 0.0353613 0.0357588 0.0361624 0.0365732 0.0369912 0.037423 0.0376436 0.0378662
0.0380908 0.0383179 0.0385524 0.0387883 0.0390285 0.0392724 0.0395188 0.0397798 0.0398543 0.0399293
0.0400046 0.0400804 0.0401385 0.040323 0.0405092 0.0406975 0.0408879 0.0410957 0.0413693 0.0416441
0.0419197 0.0421957 0.0425336 0.0426392 0.0427365 0.0428371 0.0429443 0.0430411 0.043479 0.0439546
0.0445103 0.0451644 0.0459087 0.0461897 0.0464834 0.0467885 0.0471034 0.0474553 0.0481139 0.048515
0.0488687 0.0492614 0.0513949 0 3.9239e-06 7.84781e-06 1.17717e-05 1.56957e-05 1.96168e-05 2.60018e-05
3.23868e-05 3.87718e-05 4.51569e-05 5.1542e-05 0.000373689 0.000695956 0.00101834 0.00134085 0.00166348 0.00198624
0.00230914 0.00263221 0.00295543 0.0032788 0.00360234 0.00392601 0.00424984 0.0045738 0.00489792 0.00522218
0.00554659 0.00587116 0.00619588 0.00652076 0.00684579 0.00717099 0.00749635 0.00782188 0.00814758 0.00847345
0.00879948 0.00912569 0.00945207 0.00977863 0.0101054 0.0104323 0.0107593 0.0110866 0.0114141 0.0117417
0.0120695 0.0123975 0.0127257 0.013054 0.0133826 0.0137114 0.0140403 0.0143695 0.0146989 0.0150286
0.0153584 0.0156885 0.0160188 0.0163493 0.0166801 0.0170111 0.0173424 0.0176739 0.0180057 0.0183377
0.01867 0.0190026 0.0193355 0.0196687 0.0200022 0.0203361 0.0206703 0.0210049 0.0213398 0.021675
0.0220107 0.0223468 0.0226834 0.0230204 0.0233579 0.0236959 0.0240345 0.0243737 0.0247134 0.0250537
0.0253946 0.0257363 0.0260788 0.026422 0.026766 0.027111 0.0274571 0.0278043 0.0281525 0.0285017
0.0288523 0.0292043 0.0295579 0.0299131 0.03027 0.0306293 0.030991 0.0313551 0.0317216 0.0320906
0.0324628 0.0328388 0.0332189 0.0336037 0.0339928 0.0343896 0.0347946 0.0352078 0.0356314 0.0358476
0.0360667 0.0362887 0.0365138 0.036744 0.0369634 0.0371879 0.037417 0.0376509 0.0377219 0.0377729
0.0378241 0.0378756 0.0379273 0.0379797 0.0382441 0.0385172 0.0387992 0.0390904 0.0394099 0.0397354
0.0400755 0.0404292 0.040806 0.0412627 0.0414787 0.0416952 0.0419333 0.0422016 0.0424066 0.0428171
0.0432878 0.043813 0.0443781 0.0465849 0 3.83365e-06 7.66732e-06 1.1501e-05 1.53347e-05 1.91664e-05
2.5643e-05 3.21197e-05 3.85964e-05 4.50731e-05 5.15499e-05 0.000373746 0.000696059 0.00101849 0.00134105 0.00166376
0.0019866 0.0023096 0.00263276 0.00295607 0.00327954 0.00360316 0.00392692 0.00425082 0.00457486 0.00489904
0.00522337 0.00554784 0.00587247 0.00619724 0.00652217 0.00684726 0.00717251 0.00749793 0.00782352 0.00814927
0.00847519 0.00880128 0.00912754 0.00945398 0.0097806 0.0101074 0.0104344 0.0107615 0.0110889 0.0114164
0.0117441 0.012072 0.0124001 0.0127284 0.0130569 0.0133856 0.0137145 0.0140437 0.014373 0.0147026
0.0150324 0.0153624 0.0156927 0.0160232 0.0163539 0.0166849 0.0170162 0.0173477 0.0176795 0.0180116
0.0183439 0.0186765 0.0190095 0.0193428 0.0196763 0.0200102 0.0203445 0.0206792 0.0210142 0.0213497
0.0216855 0.0220218 0.0223585 0.0226958 0.0230335 0.0233718 0.0237106 0.0240501 0.0243903 0.024731
0.0250724 0.0254146 0.0257576 0.0261014 0.0264461 0.0267917 0.0271386 0.0274866 0.0278359 0.0281863
0.0285382 0.0288917 0.029247 0.029604 0.029963 0.0303244 0.0306887 0.031056 0.0314262 0.0317994
0.0321769 0.0325593 0.0329469 0.0333398 0.0337387 0.0341474 0.0345676 0.0349997 0.0354468 0.0359096
0.0361499 0.0363958 0.0366478 0.0369062 0.0371718 0.0374454 0.0377315 0.0380311 0.0383458 0.0386775
0.0390296 0.0394332 0.0399194 0.0404784 0.0410834 0.0414442 0.0418361 0.042282 0.0427565 0.0445128
0 3.71733e-06 7.43468e-06 1.1152e-05 1.48694e-05 1.8585e-05 2.51776e-05 3.17702e-05 3.83628e-05 4.49555e-05
5.15482e-05 0.000373734 0.000696038 0.00101847 0.00134102 0.00166371 0.00198652 0.00230948 0.00263258 0.00295583
0.00327923 0.00360277 0.00392646 0.0042503 0.00457428 0.00489841 0.00522268 0.00554711 0.0058717 0.00619644
0.00652134 0.00684639 0.00717162 0.00749702 0.00782258 0.00814832 0.00847423 0.00880032 0.00912658 0.00945303
0.00977966 0.0101065 0.0104335 0.0107607 0.011088 0.0114156 0.0117433 0.0120713 0.0123995 0.0127278
0.0130564 0.0133852 0.0137142 0.0140434 0.0143728 0.0147025 0.0150324 0.0153625 0.0156929 0.0160235
0.0163544 0.0166855 0.017017 0.0173486 0.0176806 0.0180128 0.0183454 0.0186782 0.0190114 0.0193449
0.0196787 0.0200128 0.0203473 0.0206822 0.0210176 0.0213533 0.0216894 0.022026 0.0223632 0.0227008
0.0230389 0.0233775 0.0237168 0.0240567 0.0243973 0.0247385 0.0250804 0.0254232 0.0257668 0.0261113
0.0264567 0.026803 0.0271505 0.0274993 0.0278493 0.0282006 0.0285534 0.028908 0.0292645 0.0296228
0.0299831 0.0303459 0.0307116 0.0310804 0.0314523 0.0318272 0.0322073 0.0325929 0.0329842 0.0333814
0.0337846 0.0341986 0.0346242 0.0350646 0.0355184 0.0359864 0.0362331 0.036486 0.0367459 0.037014
0.0372908 0.0375841 0.0378919 0.0382152 0.0385556 0.0389165 0.039357 0.039871 0.0405228 0.0414035
0.0429209 0 3.64882e-06 7.29765e-06 1.09465e-05 1.45954e-05 1.82425e-05 2.49034e-05 3.15642e-05 3.82251e-05
4.48861e-05 5.15471e-05 0.000373725 0.000696021 0.00101845 0.00134101 0.00166371 0.00198655 0.00230953 0.00263267
0.00295597 0.00327941 0.00360301 0.00392676 0.00425064 0.00457466 0.00489883 0.00522313 0.00554759 0.0058722
0.00619696 0.00652188 0.00684695 0.00717219 0.00749761 0.00782319 0.00814894 0.00847486 0.00880097 0.00912725
0.00945371 0.00978035 0.0101072 0.0104342 0.0107614 0.0110888 0.0114164 0.0117441 0.0120721 0.0124003
0.0127287 0.0130573 0.0133861 0.0137151 0.0140444 0.0143738 0.0147035 0.0150335 0.0153637 0.0156941
0.0160248 0.0163557 0.0166869 0.0170183 0.0173501 0.0176821 0.0180144 0.0183469 0.0186798 0.019013
0.0193465 0.0196804 0.0200145 0.0203491 0.020684 0.0210194 0.0213551 0.0216912 0.0220279 0.022365
0.0227026 0.0230406 0.0233792 0.0237184 0.0240582 0.0243987 0.0247397 0.0250814 0.0254239 0.0257673
0.0261114 0.0264563 0.0268022 0.0271492 0.0274973 0.0278466 0.028197 0.0285487 0.028902 0.029257
0.0296136 0.029972 0.0303324 0.0306954 0.0310611 0.0314294 0.0318003 0.0321746 0.0325533 0.0329365
0.0333243 0.033717 0.0341155 0.0345238 0.0349411 0.0353677 0.0358052 0.035973 0.0361431 0.0363157
0.0364908 0.0365637 0.0366463 0.0367294 0.036813 0.0368973 0.0369824 0.0372331 0.0374915 0.037758
0.038033 0.0383248 0.0386246 0.0389362 0.0392611 0.0396001 0.0399947 0.0404223 0.0409256 0.0415696
0.0424164 0.0434625 0.0439138 0.0444197 0.0449796 0.0456505 0.0473989 0 3.64769e-06 7.29539e-06
1.09431e-05 1.45908e-05 1.82369e-05 2.48993e-05 3.15616e-05 3.8224e-05 4.48865e-05 5.1549e-05 0.000373741 0.000696046
0.00101847 0.00134101 0.00166367 0.00198647 0.0023094 0.00263249 0.00295572 0.0032791 0.00360263 0.0039263
0.00425012 0.00457408 0.00489818 0.00522243 0.00554684 0.0058714 0.00619613 0.006521 0.00684604 0.00717124
0.00749661 0.00782216 0.00814787 0.00847376 0.00879983 0.00912608 0.0094525 0.00977911 0.0101059 0.0104329
0.01076 0.0110874 0.0114149 0.0117427 0.0120706 0.0123987 0.0127271 0.0130557 0.0133844 0.0137134
0.0140426 0.0143721 0.0147017 0.0150316 0.0153618 0.0156921 0.0160228 0.0163537 0.0166848 0.0170162
0.0173479 0.0176798 0.018012 0.0183445 0.0186773 0.0190104 0.0193438 0.0196775 0.0200115 0.0203459
0.0206807 0.0210159 0.0213514 0.0216873 0.0220236 0.0223603 0.0226975 0.0230352 0.0233734 0.0237121
0.0240514 0.0243913 0.0247317 0.0250726 0.0254142 0.0257566 0.0260996 0.0264433 0.0267879 0.0271334
0.02748 0.0278275 0.0281759 0.0285253 0.028876 0.0292278 0.029581 0.0299356 0.0302919 0.0306503
0.0310109 0.0313732 0.0317375 0.0321042 0.0324736 0.0328458 0.0332207 0.0335994 0.0339831 0.0343731
0.0347691 0.0351708 0.0355787 0.0357866 0.0359965 0.0362084 0.0364224 0.0366397 0.0368602 0.0370833
0.0373091 0.0375376 0.0377721 0.0380093 0.0382516 0.038498 0.0387477 0.0390073 0.0391096 0.0392129
0.039317 0.039422 0.0394878 0.0396603 0.039835 0.0400119 0.040191 0.0403835 0.040695 0.0410127
0.0413359 0.0416807 0.0420864 0.0422508 0.0424057 0.0425689 0.0427419 0.0429011 0.0434062 0.0439452
0.0445665 0.0453161 0.0472354 0.0475398 0.0478619 0.0482009 0.0485552 0.0489519 0.0494742 0.0498394
0.0501191 0.0504512 0.0522196 0 3.71539e-06 7.43079e-06 1.11462e-05 1.48616e-05 1.85754e-05 2.51681e-05
3.17609e-05 3.83537e-05 4.49466e-05 5.15394e-05 0.00037367 0.000695915 0.00101827 0.00134075 0.00166334 0.00198606
0.00230894 0.00263196 0.00295513 0.00327845 0.00360192 0.00392553 0.00424928 0.00457318 0.00489722 0.00522139
0.00554573 0.00587021 0.00619486 0.00651966 0.00684461 0.00716974 0.00749504 0.00782051 0.00814615 0.00847196
0.00879795 0.00912412 0.00945046 0.00977699 0.0101037 0.0104306 0.0107577 0.0110849 0.0114124 0.01174
0.0120679 0.012396 0.0127242 0.0130527 0.0133814 0.0137103 0.0140394 0.0143688 0.0146983 0.0150281
0.0153582 0.0156885 0.016019 0.0163498 0.0166808 0.0170121 0.0173436 0.0176754 0.0180075 0.0183398
0.0186724 0.0190053 0.0193385 0.019672 0.0200058 0.0203399 0.0206744 0.0210092 0.0213444 0.0216799
0.0220157 0.022352 0.0226888 0.0230259 0.0233634 0.0237015 0.02404 0.024379 0.0247185 0.0250585
0.025399 0.0257401 0.0260819 0.0264242 0.0267671 0.0271109 0.0274554 0.0278007 0.0281468 0.0284936
0.0288413 0.0291899 0.0295396 0.0298904 0.0302423 0.0305955 0.0309502 0.0313063 0.0316638 0.0320227
0.0323831 0.0327451 0.0331091 0.0334755 0.0338444 0.0342164 0.0345914 0.0349696 0.0353508 0.0357352
0.0361225 0.0365129 0.0369076 0.0373096 0.0375142 0.0377201 0.0379271 0.0381354 0.0383466 0.0385599
0.0387743 0.0389904 0.039208 0.0394305 0.0396532 0.0398778 0.0401044 0.0403325 0.0405684 0.0407968
0.0410261 0.0412563 0.0414872 0.041729 0.041787 0.0418453 0.0419036 0.0419618 0.0420102 0.0421877
0.0423658 0.0425445 0.0427236 0.042915 0.043165 0.0434483 0.0437971 0.044155 0.0444689 0.0446107
0.0447412 0.0448763 0.0450163 0.0451405 0.0454012 0.0456771 0.0459983 0.046402 0.0467561 0.0473783
0.0478309 0.0482988 0.0487737 0.04936 0.0495791 0.0498092 0.0500513 0.0503046 0.0505411 0.0512296
0.0515169 0.0518463 0.0522322 0.053447 0.0535747 0.0537015 0.0538274 0.053955 0.0540943 0.0546945
0.0549416 0.0552164 0.0555258 0.0579785 0 3.92267e-06 7.84536e-06 1.17681e-05 1.56908e-05 1.96116e-05
2.59914e-05 3.23712e-05 3.8751e-05 4.51309e-05 5.15109e-05 0.000373463 0.000695529 0.00101771 0.00134001 0.00166242
0.00198495 0.00230764 0.00263048 0.00295346 0.00327659 0.00359987 0.00392329 0.00424685 0.00457056 0.00489441
0.0052184 0.00554255 0.00586686 0.00619132 0.00651594 0.00684071 0.00716566 0.00749079 0.00781608 0.00814155
0.00846718 0.008793 0.009119 0.00944518 0.00977154 0.0100981 0.0104248 0.0107517 0.0110788 0.0114061
0.0117336 0.0120613 0.0123892 0.0127173 0.0130457 0.0133742 0.013703 0.0140319 0.0143611 0.0146906
0.0150202 0.0153501 0.0156802 0.0160106 0.0163411 0.016672 0.017003 0.0173344 0.0176659 0.0179978
0.0183298 0.0186622 0.0189949 0.0193278 0.019661 0.0199945 0.0203283 0.0206624 0.0209969 0.0213316
0.0216667 0.0220022 0.022338 0.0226742 0.0230108 0.0233477 0.023685 0.0240228 0.024361 0.0246996
0.0250386 0.0253782 0.0257182 0.0260587 0.0263997 0.0267413 0.0270834 0.0274261 0.0277694 0.0281133
0.0283981 0.0286834 0.0289692 0.0292555 0.0294072 0.0294945 0.0295818 0.0296691 0.0297566 0.029844
0.0301923 0.0305415 0.0308915 0.0312424 0.0315944 0.0319472 0.0323012 0.0326562 0.0330124 0.0333698
0.0337285 0.0340886 0.0344501 0.034813 0.0351778 0.0355441 0.0359118 0.0362814 0.0366527 0.0370267
0.0374027 0.0377808 0.0381612 0.0385437 0.0389309 0.0393171 0.0397068 0.0400996 0.0404944 0.0408963
0.0410943 0.0412926 0.0414911 0.0416897 0.0418905 0.0419621 0.0420338 0.0421055 0.0421772 0.0422387
0.0423699 0.0425011 0.0426323 0.0427635 0.0428961 0.0430993 0.0433025 0.0435056 0.0437087 0.0439166
0.0441236 0.0443295 0.0445345 0.0447386 0.0449443 0.0450441 0.0451437 0.0452433 0.0453426 0.0454426
0.04553 0.0456171 0.0457039 0.0457904 0.0458735 0.0458842 0.0458949 0.0459057 0.0459164 0.0459271
0.0460203 0.046113 0.0462052 0.0462969 0.0463878 0.0464331 0.0464783 0.0465231 0.0465675 0.0466105
0.0466528 0.0466947 0.0467358 0.0467761 0.0468154 0.0468531 0.0468904 0.0469271 0.0469632 0.0469995
0.0470033 0.0470072 0.0470111 0.0470149 0.0470186 0.047054 0.0470891 0.047124 0.0471589 0.0471951
0.0472358 0.0472764 0.0473173 0.0473586 0.0474017 0.0474164 0.0474311 0.0474458 0.0474605 0.0474751
0.0475052 0.0475354 0.0475659 0.0475966 0.0476279 0.0476729 0.047718 0.047763 0.0478082 0.0478536
0.0478581 0.0478626 0.047867 0.0478715 0.047876 0.0479167 0.0479575 0.0479984 0.0480394 0.04808
0.0481243 0.0481688 0.0482134 0.0482579 0.0483019 0.048309 0.0483162 0.0483233 0.0483305 0.0483377
0.048359 0.0483804 0.0484019 0.0484233 0.0484441 0.0484607 0.0484773 0.0484939 0.0485104 0.0485269
0.0485706 0.0486143 0.048658 0.0487016 0.048745 0.0487664 0.0487878 0.0488092 0.0488306 0.0488524
0.0488759 0.0488994 0.0489229 0.0489464 0.0489697 0.049014 0.0490584 0.049103 0.0491476 0.0491915
0.0492301 0.0492687 0.0493074 0.0493461 0.0493865 0.0493916 0.0493968 0.0494019 0.0494071 0.0494122
0.0494571 0.049502 0.049547 0.049592 0.0496367 0.0496814 0.0497262 0.0497711 0.0498159 0.0498602