# vtk DataFile Version 2.0
tracks
ASCII
DATASET POLYDATA
POINTS 8238 float
-1.001 1e-07 0.0011 -1.0008 9.93189e-08 0.0011 -1.0006 9.86378e-08 0.0011 -1.0004 9.79567e-08
0.00110001 -1.0002 9.72756e-08 0.00110001 -1 9.65945e-08 0.00110001 -0.994328 7.72756e-08 0.00110006
-0.988656 5.97209e-08 0.00110011 -0.982985 4.21626e-08 0.00110016 -0.977313 2.46007e-08 0.00110022 -0.969369
3.88061e-28 0.00110029 -0.969245 -3.83697e-10 0.00110029 -0.969122 -7.67396e-10 0.00110029 -0.968998 -1.1511e-09
0.00110029 -0.968874 -1.5348e-09 0.00110029 -0.96875 -1.9185e-09 0.0011003 -0.9625 -2.12802e-08 0.00110035
-0.95625 -4.06465e-08 0.00110041 -0.95 -6.00172e-08 0.00110047 -0.94375 -7.93922e-08 0.00110052 -0.9375
-9.87715e-08 0.00110058 -0.93125 -1.17708e-07 0.00110063 -0.925 -1.38771e-07 0.00110067 -0.91875 -1.59838e-07
0.0011007 -0.9125 -1.80911e-07 0.00110074 -0.90625 -2.01988e-07 0.00110078 -0.9 -2.23031e-07 0.00110081
-0.89375 -2.44125e-07 0.00110085 -0.8875 -2.65224e-07 0.00110089 -0.88125 -2.86328e-07 0.00110092 -0.875
-3.07438e-07 0.00110096 -0.86875 -3.33507e-07 0.00110099 -0.8625 -3.64009e-07 0.001101 -0.85625 -3.9452e-07
0.00110102 -0.85 -4.2504e-07 0.00110104 -0.84375 -4.55568e-07 0.00110106 -0.8375 -4.85983e-07 0.00110108
-0.83125 -5.16554e-07 0.0011011 -0.825 -5.47136e-07 0.00110111 -0.81875 -5.77728e-07 0.00110113 -0.8125
-6.0833e-07 0.00110115 -0.80625 -6.40433e-07 0.00110116 -0.8 -6.72497e-07 0.00110116 -0.79375 -7.04573e-07
0.00110116 -0.7875 -7.36661e-07 0.00110116 -0.78125 -7.68761e-07 0.00110116 -0.775 -8.00588e-07 0.00110116
-0.76875 -8.32753e-07 0.00110116 -0.7625 -8.64932e-07 0.00110117 -0.75625 -8.97124e-07 0.00110117 -0.75
-9.29329e-07 0.00110117 -0.74375 -9.61611e-07 0.00110116 -0.7375 -9.93699e-07 0.00110114 -0.73125 -1.0258e-06
0.00110112 -0.725 -1.05792e-06 0.0011011 -0.71875 -1.09005e-06 0.00110108 -0.7125 -1.12168e-06 0.00110106
-0.70625 -1.15391e-06 0.00110104 -0.7 -1.18617e-06 0.00110102 -0.69375 -1.21844e-06 0.001101 -0.6875
-1.25073e-06 0.00110098 -0.68125 -1.28136e-06 0.00110095 -0.675 -1.30878e-06 0.00110089 -0.66875 -1.33621e-06
0.00110082 -0.6625 -1.36365e-06 0.00110076 -0.65625 -1.39111e-06 0.00110069 -0.65 -1.41769e-06 0.00110063
-0.64375 -1.44532e-06 0.00110057 -0.6375 -1.47297e-06 0.0011005 -0.63125 -1.50064e-06 0.00110044 -0.625
-1.52833e-06 0.00110038 -0.61875 -1.55027e-06 0.00110027 -0.6125 -1.5669e-06 0.00110012 -0.60625 -1.58354e-06
0.00109996 -0.6 -1.6002e-06 0.0010998 -0.59375 -1.61687e-06 0.00109964 -0.5875 -1.63209e-06 0.00109948
-0.58125 -1.64903e-06 0.00109932 -0.575 -1.666e-06 0.00109916 -0.56875 -1.68298e-06 0.00109901 -0.5625
-1.69997e-06 0.00109885 -0.55625 -1.71518e-06 0.00109861 -0.55 -1.73335e-06 0.00109827 -0.54375 -1.75154e-06
0.00109794 -0.5375 -1.76974e-06 0.0010976 -0.53125 -1.78796e-06 0.00109726 -0.525 -1.80392e-06 0.00109692
-0.51875 -1.82266e-06 0.00109659 -0.5125 -1.84143e-06 0.00109625 -0.50625 -1.86022e-06 0.00109591 -0.5
-1.87903e-06 0.00109558 -0.49375 -1.90689e-06 0.00109509 -0.4875 -1.9478e-06 0.00109439 -0.48125 -1.98877e-06
0.00109369 -0.475 -2.02979e-06 0.001093 -0.46875 -2.07086e-06 0.0010923 -0.4625 -2.10807e-06 0.0010916
-0.45625 -2.15034e-06 0.0010909 -0.45 -2.19269e-06 0.0010902 -0.44375 -2.23513e-06 0.00108951 -0.4375
-2.27765e-06 0.00108881 -0.431249 -2.33284e-06 0.00108778 -0.424999 -2.40459e-06 0.00108624 -0.418749 -2.4765e-06
0.00108471 -0.412499 -2.54857e-06 0.00108317 -0.406249 -2.62079e-06 0.00108164 -0.399998 -2.68486e-06 0.00108011
-0.393747 -2.76004e-06 0.00107858 -0.387496 -2.83555e-06 0.00107705 -0.381246 -2.91137e-06 0.00107552 -0.374995
-2.98753e-06 0.001074 -0.368743 -3.08593e-06 0.0010717 -0.36249 -3.21458e-06 0.00106822 -0.356238 -3.34398e-06
0.00106474 -0.349986 -3.47412e-06 0.00106127 -0.343734 -3.60501e-06 0.00105782 -0.337478 -3.71436e-06 0.00105437
-0.331222 -3.85547e-06 0.00105093 -0.324967 -3.99855e-06 0.0010475 -0.318711 -4.1436e-06 0.00104409 -0.312455
-4.29065e-06 0.00104068 -0.306193 -4.47489e-06 0.00103555 -0.299931 -4.71216e-06 0.00102684 -0.293669 -4.95346e-06
0.0010182 -0.287406 -5.19884e-06 0.00100964 -0.281144 -5.44836e-06 0.00100115 -0.274873 -5.6185e-06 0.000992709
-0.268602 -5.90888e-06 0.000984326 -0.262332 -6.20814e-06 0.000976014 -0.256061 -6.51641e-06 0.000967772 -0.24979
-6.83382e-06 0.000959598 -0.243518 -7.16779e-06 0.000947485 -0.237246 -7.70214e-06 0.00092301 -0.230975 -8.25155e-06
0.000899179 -0.224703 -8.81647e-06 0.000875973 -0.218432 -9.39734e-06 0.000853376 -0.215291 -9.70603e-06 0.000842355
-0.212151 -1.00566e-05 0.000830285 -0.20901 -1.04206e-05 0.000818386 -0.20587 -1.07982e-05 0.000806657 -0.202729
-1.11896e-05 0.000795093 -0.19959 -1.12824e-05 0.000783756 -0.196452 -1.18259e-05 0.000772499 -0.193313 -1.23915e-05
0.000761399 -0.190174 -1.29797e-05 0.000750455 -0.187035 -1.35907e-05 0.000739663 -0.183909 -1.41987e-05 0.000727256
-0.180783 -1.49089e-05 0.000712669 -0.177656 -1.56185e-05 0.000698377 -0.17453 -1.63275e-05 0.000684374 -0.171404
-1.70358e-05 0.000670654 -0.168296 -1.70776e-05 0.000657316 -0.165187 -1.78113e-05 0.000644089 -0.162079 -1.84804e-05
0.000631141 -0.15897 -1.90834e-05 0.000618468 -0.155862 -1.96188e-05 0.000606064 -0.152748 -2.00624e-05 0.000591239
-0.149635 -2.04908e-05 0.000576301 -0.146522 -2.08676e-05 0.000561759 -0.143409 -2.11912e-05 0.000547601 -0.140295
-2.14602e-05 0.000533819 -0.137178 -2.14368e-05 0.000520464 -0.13406 -2.17191e-05 0.000507324 -0.130942 -2.20198e-05
0.000494509 -0.127825 -2.23397e-05 0.00048201 -0.124707 -2.26794e-05 0.000469818 -0.121536 -2.29491e-05 0.000458696
-0.118364 -2.38238e-05 0.000457932 -0.115193 -2.50925e-05 0.000456824 -0.112022 -2.67757e-05 0.000455355 -0.108845
-2.88986e-05 0.000453501 -0.105634 -2.88986e-05 0.000453501 -0.102424 -3.36196e-05 0.00045277 -0.099214 -3.96961e-05
0.00045183 -0.0960038 -4.72296e-05 0.000450664 -0.0927917 -5.63345e-05 0.000449255 -0.0897742 -5.63345e-05 0.000449255
-0.0867568 -7.76308e-05 0.000446001 -0.0837395 -0.000107182 0.000441485 -0.0807223 -0.000148226 0.000435213 -0.0775721
-0.000208367 0.000426023 -1.001 1e-07 0.0537316 -1.00081 8e-08 0.0537316 -1.00063 5.99496e-08
0.0537317 -1.00044 3.98489e-08 0.0537317 -1.00026 1.96978e-08 0.0537318 -1.00007 3.04756e-28 0.0537319
-1.00006 -1.62598e-09 0.0537319 -1.00004 -3.25229e-09 0.0537319 -1.00003 -4.87892e-09 0.0537319 -1.00001
-6.50587e-09 0.0537319 -1 -8.13315e-09 0.0537319 -0.99375 -6.89302e-07 0.0537337 -0.9875 -1.35921e-06
0.0537356 -0.98125 -2.01779e-06 0.0537374 -0.975 -2.66499e-06 0.0537392 -0.96875 -3.30082e-06 0.0537409
-0.9625 -3.92507e-06 0.0537426 -0.95625 -4.5454e-06 0.0537442 -0.95 -5.16173e-06 0.0537458 -0.94375
-5.77407e-06 0.0537474 -0.9375 -6.38309e-06 0.0537489 -0.93125 -6.98974e-06 0.0537504 -0.925 -7.60907e-06
0.0537518 -0.91875 -8.2387e-06 0.0537531 -0.9125 -8.87706e-06 0.0537544 -0.90625 -9.52414e-06 0.0537557
-0.9 -1.01801e-05 0.053757 -0.89375 -1.08534e-05 0.0537582 -0.8875 -1.15439e-05 0.0537594 -0.88125
-1.22516e-05 0.0537605 -0.875 -1.29814e-05 0.0537616 -0.86875 -1.3741e-05 0.0537626 -0.8625 -1.4527e-05
0.0537636 -0.85625 -1.53304e-05 0.0537645 -0.85 -1.61455e-05 0.0537653 -0.84375 -1.69723e-05 0.0537661
-0.8375 -1.7811e-05 0.0537668 -0.83125 -1.86515e-05 0.0537674 -0.825 -1.94931e-05 0.053768 -0.81875
-2.03358e-05 0.0537685 -0.8125 -2.1183e-05 0.0537689 -0.80625 -2.20401e-05 0.0537692 -0.8 -2.28974e-05
0.0537696 -0.79375 -2.37535e-05 0.0537698 -0.7875 -2.46073e-05 0.0537699 -0.78125 -2.54588e-05 0.05377
-0.775 -2.63088e-05 0.05377 -0.76875 -2.71608e-05 0.0537699 -0.7625 -2.80142e-05 0.0537697 -0.75625
-2.8869e-05 0.0537693 -0.75 -2.9725e-05 0.0537689 -0.74375 -3.05834e-05 0.0537685 -0.7375 -3.14411e-05
0.0537679 -0.73125 -3.22997e-05 0.0537673 -0.725 -3.31602e-05 0.0537666 -0.71875 -3.40225e-05 0.0537657
-0.7125 -3.4888e-05 0.0537647 -0.70625 -3.57504e-05 0.0537635 -0.7 -3.66084e-05 0.0537621 -0.69375
-3.74618e-05 0.0537605 -0.6875 -3.83089e-05 0.0537588 -0.68125 -3.91494e-05 0.0537569 -0.675 -3.99718e-05
0.053755 -0.66875 -4.07768e-05 0.0537527 -0.6625 -4.15656e-05 0.0537502 -0.65625 -4.2338e-05 0.0537474
-0.65 -4.30963e-05 0.0537443 -0.64375 -4.38278e-05 0.0537408 -0.6375 -4.45302e-05 0.0537368 -0.63125
-4.52032e-05 0.0537325 -0.625 -4.58452e-05 0.0537277 -0.61875 -4.64578e-05 0.0537228 -0.6125 -4.70402e-05
0.0537175 -0.60625 -4.75914e-05 0.0537117 -0.6 -4.81119e-05 0.0537053 -0.59375 -4.86019e-05 0.0536983
-0.5875 -4.90649e-05 0.0536907 -0.58125 -4.95183e-05 0.0536823 -0.575 -4.99563e-05 0.0536731 -0.56875
-5.03789e-05 0.053663 -0.5625 -5.07881e-05 0.0536523 -0.55625 -5.11926e-05 0.0536411 -0.55 -5.16189e-05
0.0536293 -0.54375 -5.20614e-05 0.0536165 -0.5375 -5.25197e-05 0.0536026 -0.53125 -5.2994e-05 0.0535876
-0.525 -5.34894e-05 0.0535714 -0.51875 -5.40505e-05 0.0535536 -0.5125 -5.46697e-05 0.0535342 -0.50625
-5.53471e-05 0.053513 -0.5 -5.60821e-05 0.0534906 -0.49375 -5.6885e-05 0.0534672 -0.4875 -5.77768e-05
0.0534424 -0.48125 -5.87468e-05 0.0534157 -0.475 -5.97944e-05 0.0533865 -0.46875 -6.09199e-05 0.0533547
-0.4625 -6.21378e-05 0.0533205 -0.456249 -6.34496e-05 0.0532824 -0.449999 -6.48378e-05 0.0532404 -0.443749
-6.63028e-05 0.0531945 -0.437499 -6.78481e-05 0.0531456 -0.431248 -6.9499e-05 0.0530945 -0.424998 -7.12827e-05
0.0530401 -0.418747 -7.31694e-05 0.0529811 -0.412496 -7.51576e-05 0.0529159 -0.406245 -7.72483e-05 0.0528446
-0.399993 -7.94779e-05 0.0527672 -0.393741 -8.19128e-05 0.0526802 -0.38749 -8.45121e-05 0.0525834 -0.381238
-8.72774e-05 0.0524768 -0.374985 -9.02043e-05 0.0523633 -0.36873 -9.33365e-05 0.0522445 -0.362474 -9.67581e-05
0.0521178 -0.356219 -0.000100403 0.0519803 -0.349964 -0.000104313 0.0518269 -0.343708 -0.000108492 0.0516575
-0.337445 -0.000113068 0.051472 -0.331184 -0.000118171 0.0512577 -0.324924 -0.000123698 0.0510144 -0.318665
-0.000129654 0.0507416 -0.312397 -0.000135931 0.0504544 -0.306124 -0.000142608 0.0501552 -0.299853 -0.000149977
0.0498307 -0.293583 -0.000157734 0.0494806 -0.287315 -0.000165817 0.049101 -0.281035 -0.000174245 0.0486911
[...]
POINT_DATA 8238
FIELD attributes 3
age 1 8238 float
0 1.00113e-05 2.00226e-05 3.00338e-05 4.00451e-05 5.00564e-05 0.000333967 0.000617877 0.000901787 0.0011857 0.00158332
0.00158952 0.00159572 0.00160192 0.00160812 0.00161432 0.00192717 0.00224002 0.00255288 0.00286573 0.00317858
0.00349145 0.00380433 0.00411721 0.0044301 0.00474298 0.00505586 0.00536874 0.00568163 0.00599451 0.00630739
0.00662029 0.00693319 0.0072461 0.00755901 0.00787192 0.00818482 0.00849773 0.00881064 0.00912355 0.00943646
0.00974938 0.0100623 0.0103753 0.0106882 0.0110011 0.0113141 0.011627 0.01194 0.0122529 0.0125658
0.0128788 0.0131918 0.0135048 0.0138177 0.0141307 0.0144437 0.0147567 0.0150697 0.0153826 0.0156956
0.0160086 0.0163217 0.0166347 0.0169478 0.0172608 0.0175739 0.0178869 0.0181999 0.018513 0.018826
0.0191391 0.0194522 0.0197653 0.0200785 0.0203916 0.0207047 0.0210178 0.0213309 0.0216441 0.0219572
0.0222703 0.0225836 0.0228968 0.02321 0.0235232 0.0238365 0.0241497 0.0244629 0.0247761 0.0250894
0.0254027 0.025716 0.0260294 0.0263428 0.0266561 0.0269695 0.0272829 0.0275962 0.0279096 0.0282229
0.0285364 0.02885 0.0291636 0.0294771 0.0297907 0.0301043 0.0304179 0.0307315 0.0310451 0.0313587
0.0316725 0.0319864 0.0323004 0.0326143 0.0329282 0.0332423 0.0335564 0.0338705 0.0341846 0.0344987
0.0348132 0.0351281 0.0354429 0.0357577 0.0360724 0.0363876 0.0367028 0.037018 0.0373332 0.0376483
0.0379636 0.0382809 0.0385981 0.0389152 0.0392322 0.0393908 0.0395495 0.0397082 0.0398668 0.0400255
0.0401839 0.0403424 0.0405009 0.0406594 0.0408179 0.0409757 0.0411336 0.0412916 0.0414495 0.0416073
0.0417642 0.0419211 0.042078 0.0422349 0.0423917 0.0425488 0.0427059 0.042863 0.04302 0.043177
0.0433342 0.0434914 0.0436485 0.0438056 0.0439627 0.0441224 0.0442849 0.0444474 0.0446098 0.0447724
0.044937 0.0451014 0.0452658 0.0454302 0.0455946 0.0457504 0.0459205 0.0461082 0.0463175 0.0465641
0 9.59731e-06 1.91956e-05 2.87948e-05 3.8395e-05 4.77568e-05 4.85277e-05 4.92987e-05 5.00697e-05 5.08407e-05
5.16117e-05 0.000374287 0.000696961 0.00101961 0.00134221 0.00166478 0.00198729 0.0023099 0.0026326 0.00295538
0.00327826 0.00360124 0.00392429 0.00424742 0.00457062 0.00489388 0.00521721 0.0055406 0.00586405 0.00618757
0.00651116 0.00683482 0.00715855 0.00748238 0.00780628 0.00813025 0.00845431 0.00877846 0.0091027 0.00942703
0.00975145 0.010076 0.0104006 0.0107253 0.0110501 0.011375 0.0117001 0.0120252 0.0123504 0.0126757
0.0130012 0.0133268 0.0136525 0.0139783 0.0143042 0.0146303 0.0149565 0.0152829 0.0156094 0.0159362
0.0162631 0.0165902 0.0169175 0.017245 0.0175727 0.0179006 0.0182287 0.018557 0.0188856 0.0192143
0.0195433 0.0198725 0.020202 0.0205317 0.0208617 0.0211919 0.0215224 0.0218532 0.0221843 0.0225157
0.0228475 0.0231795 0.023512 0.0238448 0.0241779 0.0245115 0.0248454 0.0251797 0.0255145 0.0258496
0.0261853 0.0265213 0.0268578 0.0271949 0.0275325 0.0278705 0.0282092 0.0285485 0.0288884 0.0292291
0.0295704 0.0299124 0.0302552 0.0305988 0.0309432 0.0312886 0.0316348 0.0319821 0.0323304 0.0326797
0.03303 0.0333815 0.0337339 0.0340875 0.0344424 0.0347987 0.0351566 0.0355165 0.0358786 0.0362429
0.0366091 0.036977 0.0373469 0.0377187 0.0380915 0.038466 0.0388433 0.0392209 0.0395987 0.0399765
0.0403569 0.0405468 0.0407366 0.0409264 0.0411163 0.0413071 0.0414974 0.0416882 0.0418797 0.042072
0.0422671 0.0424619 0.0426575 0.0428539 0.0430507 0.0432504 0.0434483 0.0436461 0.0438439 0.0440417
0.0442404 0.0443853 0.0445412 0.0446936 0.0448426 0.0450015 0.0450506 0.0450998 0.0451491 0.0451984
0.0452478 0.0454402 0.045633 0.0458261 0.0460195 0.0462136 0.0464357 0.0466578 0.0469068 0.047198
0.0475491 0.0478961 0.048239 0.0486159 0.0490251 0.0494028 0.0499085 0.050373 0.050911 0.051536
0.0524817 0 9.56982e-06 1.91397e-05 2.87096e-05 3.82795e-05 4.78734e-05 4.86122e-05 4.9351e-05 5.00897e-05
5.08285e-05 5.15673e-05 0.000373866 0.000696151 0.00101842 0.00134068 0.00166289 0.00198506 0.00230733 0.00262968
0.00295212 0.00327465 0.00359728 0.00391998 0.00424275 0.0045656 0.00488852 0.00521152 0.0055346 0.00585774
0.00618094 0.00650422 0.00682756 0.00715098 0.00747448 0.00779805 0.00812171 0.00844545 0.00876928 0.00909322
0.00941724 0.00974136 0.0100656 0.0103899 0.0107143 0.0110388 0.0113634 0.0116881 0.0120129 0.0123379
0.0126629 0.0129881 0.0133133 0.0136387 0.0139642 0.0142899 0.0146156 0.0149415 0.0152676 0.0155939
0.0159203 0.016247 0.0165738 0.0169008 0.017228 0.0175554 0.0178831 0.0182109 0.018539 0.0188673
0.0191959 0.0195246 0.0198536 0.0201829 0.0205124 0.0208422 0.0211722 0.0215026 0.0218332 0.0221642
0.0224956 0.0228273 0.0231593 0.0234917 0.0238245 0.0241576 0.0244913 0.0248253 0.0251599 0.0254949
0.0258305 0.0261665 0.026503 0.02684 0.0271777 0.0275159 0.0278548 0.0281944 0.0285349 0.0288764
0.0292186 0.0295617 0.0299056 0.0302506 0.0305966 0.0309436 0.031292 0.0316419 0.0319936 0.032347
0.0327018 0.0330582 0.0334164 0.0337765 0.0341387 0.0345028 0.0348704 0.0352424 0.0356182 0.0359984
0.0363832 0.0367753 0.0371718 0.0375703 0.0379707 0.0383729 0.0387819 0.0389201 0.0390584 0.0391967
0.0393348 0.0394459 0.03952 0.0395941 0.0396681 0.0397421 0.0398164 0.0400249 0.0402344 0.0404447
0.0406557 0.0408739 0.0410897 0.0413061 0.0415231 0.0417401 0.0419654 0.0421817 0.042432 0.0426816
0.0429144 0.0431063 0.0431121 0.043118 0.0431239 0.0431298 0.0431356 0.0433658 0.0436325 0.0439703
0.0444306 0.0449017 0.0453541 0.0457803 0.0462851 0.0468941 0.0476727 0 1.00886e-05 2.01771e-05
3.02657e-05 4.03543e-05 5.04946e-05 5.07059e-05 5.09173e-05 5.11286e-05 5.13399e-05 5.15512e-05 0.000373747 0.000695934
0.00101811 0.00134028 0.00166243 0.00198457 0.0023068 0.00262912 0.00295154 0.00327405 0.00359665 0.00391933
0.00424208 0.00456491 0.00488782 0.0052108 0.00553386 0.00585698 0.00618018 0.00650345 0.00682679 0.00715021
0.00747372 0.00779731 0.00812098 0.00844473 0.00876858 0.00909253 0.00941657 0.00974071 0.0100649 0.0103893
0.0107137 0.0110383 0.0113629 0.0116877 0.0120126 0.0123376 0.0126627 0.0129879 0.0133133 0.0136387
0.0139643 0.0142901 0.014616 0.014942 0.0152682 0.0155946 0.0159212 0.0162479 0.0165749 0.016902
0.0172294 0.0175571 0.0178849 0.018213 0.0185413 0.0188699 0.0191987 0.0195278 0.0198571 0.0201867
0.0205166 0.0208468 0.0211773 0.0215081 0.0218393 0.0221708 0.0225028 0.0228351 0.0231678 0.0235009
0.0238345 0.0241686 0.0245032 0.0248382 0.0251738 0.0255101 0.0258469 0.0261843 0.0265224 0.0268612
0.0272008 0.0275412 0.0278824 0.0282244 0.0285677 0.028912 0.0292575 0.0296042 0.0299522 0.0303018
0.0306532 0.0310062 0.0313611 0.031718 0.0320779 0.0324405 0.0328058 0.033064 0.0330862 0.0331084
0.0331306 0.0331527 0.0331749 0.0335471 0.0339264 0.0343132 0.0347076 0.0351122 0.0355255 0.035944
0.0363681 0.0367979 0.0372394 0.0374612 0.0376842 0.0379082 0.0381337 0.0383645 0.0385961 0.0388286
0.0390629 0.0393013 0.0395525 0.0396808 0.0398104 0.0399411 0.0400728 0.0401794 0.0403043 0.04043
0.0405565 0.0406838 0.0408156 0.0410786 0.0413408 0.0416214 0.0419329 0.0423072 0.0426579 0.0430633
0.0435807 0.0442875 0.0454721 0 1.0309e-05 2.0618e-05 3.09271e-05 4.12362e-05 5.15454e-05 5.15773e-05
5.16092e-05 5.16411e-05 5.16729e-05 5.17048e-05 0.000373836 0.000695956 0.00101807 0.00134017 0.00166225 0.00198434
0.00230652 0.00262879 0.00295117 0.00327363 0.00359619 0.00391884 0.00424156 0.00456436 0.00488725 0.00521021
0.00553325 0.00585636 0.00617955 0.00650281 0.00682614 0.00714956 0.00747307 0.00779666 0.00812034 0.0084441
0.00876796 0.00909192 0.00941598 0.00974014 0.0100644 0.0103888 0.0107133 0.0110378 0.0113625 0.0116873
0.0120123 0.0123373 0.0126624 0.0129877 0.0133131 0.0136387 0.0139643 0.0142902 0.0146161 0.0149423
0.0152686 0.0155951 0.0159218 0.0162486 0.0165757 0.0169031 0.0172306 0.0175585 0.0178865 0.0182148
0.0185434 0.0188722 0.0192013 0.0195307 0.0198603 0.0201903 0.0205206 0.0208512 0.0211822 0.0215135
0.0218451 0.0221772 0.0225098 0.0228427 0.0231761 0.02351 0.0238445 0.0241796 0.0245152 0.0248513
0.025188 0.0255255 0.0258637 0.0262026 0.0265423 0.026883 0.0272247 0.0275674 0.0279112 0.0282559
0.0286019 0.0289494 0.0292984 0.029649 0.0300014 0.030356 0.0307128 0.0310721 0.0314336 0.0317976
0.0321658 0.0325393 0.0329192 0.0333059 0.0335857 0.0338684 0.034154 0.0344427 0.0353292 0.0353998
0.0354705 0.0355414 0.0356126 0.0363854 0.0366065 0.0368342 0.0370683 0.037309 0.0375642 0.0376023
0.0376405 0.0376789 0.0377175 0.0377519 0.0379782 0.0382105 0.0384491 0.0386941 0.0389574 0.039056
0.0391555 0.0392556 0.0393564 0.0406258 0.0408214 0.0410406 0.0412931 0.0415909 0.0430136 0.0433514
0.0437716 0.0443265 0.0451403 0.0466565 0 9.88214e-06 1.97643e-05 2.96465e-05 3.95288e-05 4.94565e-05
4.9875e-05 5.02936e-05 5.07121e-05 5.11306e-05 5.15492e-05 0.000373735 0.000695913 0.00101808 0.00134022 0.00166232
0.00198438 0.00230654 0.00262878 0.00295113 0.00327356 0.0035961 0.00391871 0.00424141 0.00456419 0.00488705
0.00521 0.00553302 0.00585613 0.0061793 0.00650256 0.00682589 0.00714931 0.00747281 0.00779641 0.00812009
0.00844385 0.00876772 0.0090917 0.00941578 0.00973995 0.0100642 0.0103886 0.0107131 0.0110378 0.0113625
0.0116873 0.0120123 0.0123373 0.0126625 0.0129879 0.0133133 0.0136389 0.0139647 0.0142906 0.0146166
0.0149428 0.0152692 0.0155958 0.0159226 0.0162496 0.0165768 0.0169043 0.017232 0.01756 0.0178882
0.0182166 0.0185454 0.0188744 0.0192037 0.0195333 0.0198632 0.0201935 0.0205241 0.020855 0.0211863
0.0215179 0.02185 0.0221825 0.0225155 0.0228489 0.0231829 0.0235174 0.0238525 0.0241883 0.0245246
0.0248615 0.0251992 0.0255377 0.025877 0.0262171 0.0265581 0.0269003 0.0272437 0.0275882 0.0279338
0.0282808 0.0286295 0.0289799 0.0293321 0.0296862 0.0300429 0.0304025 0.0307652 0.0311309 0.0314994
0.0318723 0.0322535 0.0326433 0.0330423 0.0334521 0.0338772 0.0343142 0.0347635 0.0352269 0.0357049
0.0359526 0.0362057 0.036465 0.0367306 0.0370031 0.037285 0.0375867 0.0379067 0.0382438 0.0386016
0.0390085 0.0395074 0.0401487 0.0410412 0.0423276 0.0426637 0.042988 0.0432805 0.0435525 0.0446542
0 9.09473e-06 1.81895e-05 2.72843e-05 3.63791e-05 4.55056e-05 4.67151e-05 4.79247e-05 4.91343e-05 5.03438e-05
5.15534e-05 0.000373766 0.000695966 0.00101814 0.00134028 0.0016624 0.00198449 0.00230667 0.00262895 0.00295133
0.00327381 0.00359638 0.00391904 0.00424177 0.00456458 0.00488747 0.00521044 0.00553349 0.00585661 0.00617981
0.00650309 0.00682644 0.00714989 0.00747342 0.00779704 0.00812075 0.00844455 0.00876845 0.00909245 0.00941655
0.00974076 0.0100651 0.0103895 0.010714 0.0110387 0.0113634 0.0116883 0.0120133 0.0123384 0.0126637
0.0129891 0.0133146 0.0136403 0.0139661 0.0142921 0.0146182 0.0149445 0.015271 0.0155977 0.0159246
0.0162517 0.016579 0.0169066 0.0172344 0.0175625 0.0178908 0.0182194 0.0185483 0.0188775 0.019207
0.0195368 0.0198669 0.0201973 0.0205281 0.0208592 0.0211908 0.0215226 0.021855 0.0221878 0.0225211
0.0228549 0.0231891 0.0235239 0.0238594 0.0241954 0.0245321 0.0248694 0.0252076 0.0255466 0.0258864
0.026227 0.0265686 0.0269113 0.0272552 0.0276003 0.0279467 0.0282945 0.0286442 0.0289957 0.0293492
0.0297046 0.0300627 0.0304236 0.0307878 0.0311551 0.0315258 0.0319016 0.0322871 0.0326828 0.0330893
0.0335071 0.0339414 0.0343889 0.0348509 0.0353272 0.0358187 0.0360774 0.0363422 0.036614 0.0368928
0.037179 0.0374817 0.0377911 0.0381049 0.0384233 0.0387556 0.0391466 0.0395687 0.0400782 0.0407717
0.0418673 0 8.22614e-06 1.64523e-05 2.46785e-05 3.29047e-05 4.11456e-05 4.32255e-05 4.53055e-05 4.73855e-05
4.94655e-05 5.15454e-05 0.000373708 0.000695862 0.00101798 0.00134007 0.00166213 0.00198415 0.00230626 0.00262848
0.00295079 0.0032732 0.0035957 0.00391829 0.00424096 0.00456371 0.00488655 0.00520948 0.00553248 0.00585556
0.00617872 0.00650195 0.00682527 0.00714867 0.00747216 0.00779574 0.00811941 0.00844317 0.00876704 0.00909101
0.00941508 0.00973926 0.0100635 0.0103879 0.0107125 0.0110371 0.0113618 0.0116867 0.0120116 0.0123367
0.012662 0.0129873 0.0133128 0.0136384 0.0139642 0.0142902 0.0146163 0.0149425 0.015269 0.0155956
0.0159225 0.0162496 0.0165769 0.0169045 0.0172323 0.0175603 0.0178887 0.0182172 0.0185461 0.0188753
0.0192047 0.0195344 0.0198645 0.0201948 0.0205256 0.0208566 0.021188 0.0215198 0.021852 0.0221846
0.0225177 0.0228513 0.0231853 0.0235199 0.0238551 0.0241909 0.0245272 0.0248642 0.0252018 0.0255403
0.0258795 0.0262194 0.0265602 0.0269021 0.027245 0.027589 0.0279341 0.0282804 0.0286282 0.0289777
0.0293287 0.0296814 0.0300362 0.0303936 0.0307536 0.031116 0.031481 0.0318492 0.0322244 0.0326067
0.0329964 0.0333943 0.0338018 0.0342191 0.034644 0.0350768 0.0355187 0.0357447 0.0359741 0.0362067
0.0364425 0.0366832 0.0367201 0.0367572 0.0367945 0.036832 0.0368604 0.0370758 0.0372974 0.0375256
0.0377604 0.0380115 0.0383105 0.0386106 0.0389101 0.0392084 0.0395349 0.0398624 0.0402357 0.0407131
0.0413513 0.0423426 0 7.66309e-06 1.53262e-05 2.29893e-05 3.06524e-05 3.83322e-05 4.09718e-05 4.36114e-05
4.62511e-05 4.88907e-05 5.15303e-05 0.000373596 0.000695658 0.00101771 0.00133976 0.00166177 0.00198376 0.00230586
0.00262805 0.00295035 0.00327275 0.00359524 0.00391782 0.00424048 0.00456322 0.00488605 0.00520895 0.00553193
0.00585499 0.00617813 0.00650135 0.00682465 0.00714803 0.0074715 0.00779507 0.00811872 0.00844246 0.00876631
0.00909025 0.0094143 0.00973846 0.0100627 0.0103871 0.0107116 0.0110362 0.0113609 0.0116857 0.0120107
0.0123357 0.012661 0.0129863 0.0133118 0.0136374 0.0139631 0.0142891 0.0146151 0.0149414 0.0152678
0.0155944 0.0159213 0.0162483 0.0165756 0.0169031 0.0172308 0.0175588 0.017887 0.0182155 0.0185443
0.0188733 0.0192026 0.0195322 0.0198621 0.0201923 0.0205229 0.0208537 0.0211849 0.0215165 0.0218484
0.0221807 0.0225134 0.0228466 0.0231802 0.0235143 0.023849 0.0241842 0.0245198 0.024856 0.0251928
0.0255303 0.0258684 0.0262071 0.0265466 0.026887 0.0272284 0.0275706 0.0279137 0.0282576 0.0286027
0.028949 0.0292965 0.0296454 0.0299959 0.0303482 0.0307025 0.0310584 0.0314162 0.0317761 0.0321391
0.0325052 0.0328747 0.0332493 0.0336306 0.0340154 0.0344034 0.0347912 0.0351811 0.0353794 0.0355788
0.0357795 0.0359814 0.0361853 0.0363914 0.0366007 0.0368133 0.0370298 0.0372538 0.0374812 0.0377151
0.0379559 0.0382007 0.0384563 0.038687 0.0389194 0.0391529 0.0393872 0.0394858 0.0395401 0.0395945
0.039649 0.0397035 0.0397589 0.0400496 0.0403515 0.0406825 0.0410481 0.0414642 0.0417853 0.0421456
0.0425997 0.0432052 0.044179 0 7.56248e-06 1.5125e-05 2.26875e-05 3.02501e-05 3.78242e-05 4.05614e-05
4.32987e-05 4.60359e-05 4.87731e-05 5.15104e-05 0.000373454 0.000695394 0.00101733 0.00133927 0.0016612 0.0019831
0.0023051 0.0026272 0.0029494 0.00327171 0.00359411 0.0039166 0.00423918 0.00456183 0.00488458 0.0052074
0.00553031 0.00585329 0.00617635 0.00649948 0.0068227 0.007146 0.00746939 0.00779287 0.00811644 0.0084401
0.00876386 0.00908773 0.00941171 0.00973579 0.01006 0.0103843 0.0107087 0.0110332 0.0113578 0.0116826
0.0120075 0.0123325 0.0126576 0.0129828 0.0133082 0.0136337 0.0139594 0.0142853 0.0146112 0.0149374
0.0152637 0.0155903 0.015917 0.016244 0.0165711 0.0168985 0.0172261 0.017554 0.0178821 0.0182104
0.018539 0.0188678 0.0191969 0.0195263 0.0198559 0.0201858 0.020516 0.0208465 0.0211773 0.0215084
0.0218399 0.0221717 0.0225039 0.0228365 0.0231694 0.0235029 0.0238367 0.0241711 0.0245059 0.0248411
0.0251768 0.0255131 0.0258499 0.0261873 0.0265253 0.0268639 0.0272033 0.0275434 0.0278843 0.0282258
0.0285681 0.0289114 0.0292556 0.0296009 0.0299473 0.030295 0.0306441 0.0309945 0.0313463 0.0316995
0.032054 0.0324102 0.0327684 0.0331287 0.0334916 0.033859 0.0342311 0.0346079 0.0349891 0.0353736
0.0357595 0.0361467 0.0365362 0.0369298 0.0371244 0.0373193 0.0375144 0.0377098 0.0379066 0.0379285
0.0379504 0.0379723 0.0379943 0.038014 0.0381918 0.0383712 0.0385521 0.0387345 0.0389215 0.0391317
0.0393441 0.0395588 0.0397758 0.0400006 0.040219 0.0404389 0.0406602 0.0408826 0.0411148 0.0413157
0.0415467 0.041773 0.0419879 0.0421422 0.0421709 0.0421995 0.0422281 0.0422568 0.0422856 0.042523
0.0428018 0.0431559 0.0436407 0.0441334 0.0445896 0.0450453 0.0455965 0.0462823 0.0471388 0
7.73972e-06 1.54795e-05 2.32192e-05 3.0959e-05 3.87113e-05 4.12689e-05 4.38265e-05 4.63841e-05 4.89417e-05 5.14993e-05
0.000373374 0.000695245 0.00101711 0.00133898 0.00166084 0.00198268 0.00230462 0.00262667 0.00294881 0.00327105
0.00359339 0.00391581 0.00423832 0.00456091 0.00488358 0.00520633 0.00552916 0.00585207 0.00617505 0.00649811
0.00682125 0.00714448 0.00746779 0.0077912 0.00811469 0.00843828 0.00876197 0.00908577 0.00940967 0.00973367
0.0100578 0.010382 0.0107064 0.0110308 0.0113554 0.0116801 0.0120049 0.0123298 0.0126549 0.0129801
0.0133055 0.013631 0.0139566 0.0142825 0.0146085 0.0149346 0.015261 0.0155875 0.0159143 0.0162412
0.0165683 0.0168957 0.0172232 0.017551 0.017879 0.0182072 0.0185357 0.0188643 0.0191933 0.0195224
0.0198518 0.0201815 0.0205114 0.0208416 0.0211721 0.0215029 0.021834 0.0221654 0.0224972 0.0228293
0.0231617 0.0234945 0.0238277 0.0241613 0.0244953 0.0248297 0.0251646 0.0254999 0.0258357 0.0261719
0.0265086 0.0268458 0.0271836 0.0275219 0.0278608 0.0282003 0.0285405 0.0288814 0.029223 0.0295654
0.0299085 0.0302524 0.0305972 0.0309429 0.0312895 0.0316371 0.0319858 0.0323355 0.0326863 0.0330383
0.0333068 0.0335761 0.0338462 0.0341171 0.0342386 0.0343544 0.0344704 0.0345865 0.0347027 0.0348192
0.0351796 0.0355422 0.035907 0.0362741 0.0366443 0.037017 0.0373906 0.0377652 0.0381408 0.0385194
0.0388978 0.0392762 0.0396544 0.0400367 0.0404286 0.0406214 0.0408143 0.0410073 0.0412003 0.0413956
0.0415914 0.0417885 0.0419864 0.0421851 0.0423768 0.0423795 0.0423823 0.042385 0.0423877 0.0423905
0.0425948 0.0428024 0.0430133 0.0432275 0.0434547 0.0436801 0.0439044 0.0441273 0.0443498 0.0445653
0.0446724 0.0447786 0.0448844 0.0449895 0.0450924 0.0451938 0.045295 0.0453962 0.0454974 0.0455999
0.0456737 0.0457471 0.0458193 0.0458906 0.0459836 0.0460028 0.046022 0.0460411 0.0460601 0.0460791
0.0461246 0.0461696 0.046214 0.0462577 0.0463004 0.0463424 0.046384 0.0464251 0.0464658 0.0465062
0.0465454 0.0465839 0.0466217 0.0466589 0.0466965 0.0467353 0.0467735 0.0468113 0.0468488 0.046887
0.0469067 0.0469264 0.046946 0.0469656 0.0469834 0.0470026 0.0470218 0.0470411 0.0470603 0.0470799
0.0471199 0.0471597 0.0471995 0.0472391 0.0472785 0.0472936 0.0473086 0.0473241 0.0473391 0.0473545
0.0473786 0.0474027 0.047427 0.0474513 0.0474755 0.0475135 0.0475516 0.0475899 0.0476283 0.0476667
0.0476902 0.0477137 0.0477372 0.0477607 0.0477843 0.0478 0.0478156 0.0478313 0.0478471 0.0478627
0.0478904 0.0479181 0.0479458 0.0479736 0.0480011 0.0480117 0.0480224 0.048033 0.0480436 0.0480543
0.0480941 0.0481415 0.0481943 0.0482414 0.0482843 0.0482863 0.0482883 0.0482902 0.0482921 0.0482941
0.0483305 0.0483669 0.0484033 0.0484398 0.048476 0.0485173 0.0485584 0.0485995 0.0486417 0.0486884
0.0487314 0.0487695 0.0488056 0.0488399 0.048885 0.0488858 0.0488866 0.0488875 0.0488883 0.0488891
0.048928 0.0489668 0.0490056 0.0490444 0.0490837 0.0491268 0.0491695 0.0492121 0.049258 0.0493096
0.0493561 0.0493931 0.049428 0.0494614 0.0495052 0.0495081 0.0495109 0.0495138 0.0495166 0.0495194
0.0495637 0.0496108 0.0496646 0.0497337 0.0498036 0.0498741 0.0499234 0.0499704 0.0500152 0.0500606
0.0501213 0.0501665 0.0502109 0.0502521 0.050291 0.0503072 0.0503217 0.0503349 0.0503486 0.0503643
0.0504095 0.0504594 0.050515 0.0505775 0.050653 0.0507581 0.050822 0.0508792 0.050938 0.0510016
0.0510934 0.0511536 0.0512114 0.0512695 0.0513275 0.0514014 0.0514498 0.0514933 0.051538 0.0515992
0.0516456 0.0516971 0.0517544 0.0518185 0.0518958 0.0521188 0.052223 0.0523348 0.0524553 0.0525828
0.052828 0.0529537 0.0530938 0.053252 0.0534292 0.0538062 0.0539909 0.0542194 0.0545187 0.0549334
0.0554826 0.0557156 0.0560885 0.0567089 0 7.36713e-06 1.47343e-05 2.21015e-05 2.94687e-05 3.68378e-05
3.97677e-05 4.26976e-05 4.56276e-05 4.85575e-05 5.14874e-05 0.000373288 0.000695087 0.00101688 0.00133868 0.00166045
0.0019822 0.00230404 0.00262599 0.00294804 0.00327019 0.00359244 0.00391477 0.00423719 0.00455969 0.00488226
0.00520492 0.00552765 0.00585046 0.00617335 0.00649631 0.00681936 0.00714249 0.00746571 0.00778903 0.00811243