# vtk DataFile Version 2.0
tracks
ASCII
DATASET POLYDATA
POINTS 14640 float
-1.001 1e-07 0.0011 -1.0008 9.91509e-08 0.0011 -1.0006 9.83018e-08 0.00110001 -1.0004 9.74527e-08
0.00110001 -1.0002 9.66036e-08 0.00110002 -1 9.57544e-08 0.00110002 -0.99549 7.66035e-08 0.00110011
-0.990981 5.8952e-08 0.0011002 -0.986471 4.12942e-08 0.00110029 -0.981962 2.36304e-08 0.00110037 -0.975931
3.19172e-28 0.00110049 -0.974495 -5.63048e-09 0.00110052 -0.973059 -1.12616e-08 0.00110054 -0.971623 -1.68934e-08
0.00110057 -0.970186 -2.25258e-08 0.0011006 -0.96875 -2.81589e-08 0.00110063 -0.9625 -5.26633e-08 0.00110075
-0.95625 -7.71872e-08 0.00110087 -0.95 -1.01722e-07 0.00110099 -0.94375 -1.26266e-07 0.00110111 -0.9375
-1.50822e-07 0.00110123 -0.93125 -1.69897e-07 0.00110133 -0.925 -1.86671e-07 0.0011014 -0.91875 -2.03452e-07
0.00110147 -0.9125 -2.2024e-07 0.00110155 -0.90625 -2.37034e-07 0.00110162 -0.9 -2.53757e-07 0.00110169
-0.89375 -2.70572e-07 0.00110176 -0.8875 -2.87394e-07 0.00110184 -0.88125 -3.04224e-07 0.00110191 -0.875
-3.2106e-07 0.00110198 -0.86875 -3.38465e-07 0.00110203 -0.8625 -3.58759e-07 0.00110205 -0.85625 -3.79062e-07
0.00110208 -0.85 -3.99373e-07 0.0011021 -0.84375 -4.19693e-07 0.00110213 -0.8375 -4.39851e-07 0.00110216
-0.83125 -4.60225e-07 0.00110218 -0.825 -4.80609e-07 0.00110221 -0.81875 -5.01004e-07 0.00110223 -0.8125
-5.21409e-07 0.00110226 -0.80625 -5.43605e-07 0.00110226 -0.8 -5.64601e-07 0.00110225 -0.79375 -5.85609e-07
0.00110223 -0.7875 -6.06629e-07 0.00110222 -0.78125 -6.2766e-07 0.00110221 -0.775 -6.48346e-07 0.00110219
-0.76875 -6.69453e-07 0.00110218 -0.7625 -6.90574e-07 0.00110216 -0.75625 -7.11708e-07 0.00110215 -0.75
-7.32855e-07 0.00110213 -0.74375 -7.51286e-07 0.0011021 -0.7375 -7.67769e-07 0.00110204 -0.73125 -7.84264e-07
0.00110198 -0.725 -8.0077e-07 0.00110192 -0.71875 -8.17288e-07 0.00110186 -0.7125 -8.33207e-07 0.00110181
-0.70625 -8.49843e-07 0.00110175 -0.7 -8.66493e-07 0.00110169 -0.69375 -8.83157e-07 0.00110163 -0.6875
-8.99834e-07 0.00110158 -0.68125 -9.15332e-07 0.00110149 -0.675 -9.2928e-07 0.00110137 -0.66875 -9.43242e-07
0.00110125 -0.6625 -9.57216e-07 0.00110113 -0.65625 -9.71203e-07 0.00110101 -0.65 -9.84216e-07 0.00110089
-0.64375 -9.98396e-07 0.00110077 -0.6375 -1.01259e-06 0.00110065 -0.63125 -1.0268e-06 0.00110053 -0.625
-1.04103e-06 0.0011004 -0.61875 -1.05252e-06 0.00110022 -0.6125 -1.06001e-06 0.00109996 -0.60625 -1.06751e-06
0.0010997 -0.6 -1.07501e-06 0.00109944 -0.59375 -1.08253e-06 0.00109918 -0.5875 -1.08855e-06 0.00109892
-0.58125 -1.09639e-06 0.00109866 -0.575 -1.10424e-06 0.0010984 -0.56875 -1.1121e-06 0.00109814 -0.5625
-1.11997e-06 0.00109788 -0.55625 -1.1242e-06 0.0010975 -0.55 -1.12519e-06 0.00109696 -0.54375 -1.12617e-06
0.00109641 -0.5375 -1.12716e-06 0.00109586 -0.53125 -1.12815e-06 0.00109532 -0.525 -1.12687e-06 0.00109477
-0.51875 -1.12832e-06 0.00109422 -0.5125 -1.12976e-06 0.00109368 -0.50625 -1.13122e-06 0.00109313 -0.5
-1.13267e-06 0.00109259 -0.49375 -1.13089e-06 0.0010918 -0.4875 -1.13253e-06 0.00109069 -0.48125 -1.13417e-06
0.00108957 -0.475 -1.13582e-06 0.00108846 -0.46875 -1.13748e-06 0.00108735 -0.4625 -1.13578e-06 0.00108624
-0.45625 -1.13831e-06 0.00108513 -0.45 -1.14085e-06 0.00108402 -0.44375 -1.14342e-06 0.00108291 -0.4375
-1.146e-06 0.0010818 -0.431249 -1.15671e-06 0.00108019 -0.424999 -1.17743e-06 0.0010778 -0.418749 -1.19825e-06
0.00107542 -0.412499 -1.21918e-06 0.00107304 -0.406249 -1.24021e-06 0.00107066 -0.399998 -1.25518e-06 0.00106829
-0.393747 -1.27839e-06 0.00106592 -0.387496 -1.30189e-06 0.00106356 -0.381246 -1.32566e-06 0.00106121 -0.374995
-1.34972e-06 0.00105886 -0.368743 -1.38945e-06 0.00105534 -0.36249 -1.45507e-06 0.00105001 -0.356238 -1.52159e-06
0.00104471 -0.349986 -1.58903e-06 0.00103944 -0.343734 -1.65738e-06 0.00103419 -0.337478 -1.7084e-06 0.00102897
-0.331222 -1.78622e-06 0.00102376 -0.324967 -1.86662e-06 0.00101859 -0.318711 -1.94964e-06 0.00101344 -0.312455
-2.0353e-06 0.00100832 -0.306193 -2.15643e-06 0.00100067 -0.299931 -2.32468e-06 0.00098837 -0.293669 -2.49902e-06
0.000976224 -0.287406 -2.67956e-06 0.00096423 -0.281144 -2.8664e-06 0.000952386 -0.274873 -2.96942e-06 0.000940661
-0.268603 -3.20519e-06 0.000929069 -0.262332 -3.45442e-06 0.000917619 -0.256061 -3.7174e-06 0.00090631 -0.24979
-3.99441e-06 0.00089514 -0.243519 -4.34513e-06 0.000877465 -0.237247 -4.85936e-06 0.000840602 -0.230975 -5.39889e-06
0.000805329 -0.224704 -5.96478e-06 0.000771578 -0.218433 -6.55807e-06 0.000739282 -0.215292 -6.90509e-06 0.000723746
-0.212152 -7.37061e-06 0.000706138 -0.209012 -7.86451e-06 0.000688953 -0.205871 -8.38748e-06 0.000672178 -0.202731
-8.94018e-06 0.000655803 -0.199592 -8.99773e-06 0.000639998 -0.196453 -9.6953e-06 0.000624385 -0.193315 -1.0432e-05
0.000609142 -0.190176 -1.12088e-05 0.000594258 -0.187037 -1.20269e-05 0.000579725 -0.183911 -1.28299e-05 0.000563335
-0.180785 -1.38016e-05 0.000544369 -0.177658 -1.47826e-05 0.000526045 -0.174532 -1.57733e-05 0.00050834 -0.171406
-1.67739e-05 0.000491235 -0.168297 -1.675e-05 0.000474907 -0.165188 -1.77943e-05 0.000458818 -0.162079 -1.87504e-05
0.000443296 -0.15897 -1.96149e-05 0.000428321 -0.155861 -2.03847e-05 0.000413876 -0.152748 -2.10371e-05 0.000397124
-0.149634 -2.16943e-05 0.000379347 -0.146521 -2.2285e-05 0.000362387 -0.143407 -2.28061e-05 0.000346206 -0.140293
-2.32543e-05 0.000330771 -0.137175 -2.31754e-05 0.000316176 -0.134056 -2.36759e-05 0.000301973 -0.130938 -2.42199e-05
0.000288384 -0.127819 -2.48097e-05 0.00027538 -0.124701 -2.54479e-05 0.000262933 -0.121537 -2.60486e-05 0.000251362
-0.118373 -2.76135e-05 0.000249671 -0.115209 -2.98183e-05 0.000247289 -0.112046 -3.27126e-05 0.000244162 -0.108876
-3.63559e-05 0.000240226 -0.105657 -3.63559e-05 0.000240226 -0.102437 -4.43859e-05 0.000237267 -0.099218 -5.48563e-05
0.00023341 -0.0959985 -6.80473e-05 0.00022855 -0.0927749 -8.42921e-05 0.000222564 -0.0897019 -8.42921e-05 0.000222564
-0.0866292 -0.000122263 0.000217275 -0.0835566 -0.0001771 0.000209636 -0.0804846 -0.000253104 0.000199048 -0.077303
-0.000337604 0.000187276 -1.001 1e-07 0.0537316 -1.00086 8e-08 0.0537317 -1.00071 5.99614e-08
0.0537318 -1.00057 3.98842e-08 0.0537319 -1.00042 1.97684e-08 0.053732 -1.00028 3.05914e-28 0.053732
-1.00023 -7.93117e-09 0.0537321 -1.00017 -1.58683e-08 0.0537321 -1.00011 -2.38114e-08 0.0537322 -1.00006
-3.17605e-08 0.0537322 -1 -3.97155e-08 0.0537322 -0.99375 -9.19449e-07 0.0537363 -0.9875 -1.78732e-06
0.0537404 -0.98125 -2.64438e-06 0.0537444 -0.975 -3.49136e-06 0.0537482 -0.96875 -4.32825e-06 0.0537519
-0.9625 -5.15424e-06 0.0537555 -0.95625 -5.94059e-06 0.053759 -0.95 -6.68692e-06 0.0537623 -0.94375
-7.39317e-06 0.0537654 -0.9375 -8.06245e-06 0.0537684 -0.93125 -8.69895e-06 0.0537712 -0.925 -9.3223e-06
0.0537739 -0.91875 -9.92992e-06 0.0537764 -0.9125 -1.05203e-05 0.0537788 -0.90625 -1.10933e-05 0.053781
-0.9 -1.16488e-05 0.053783 -0.89375 -1.22049e-05 0.0537849 -0.8875 -1.27612e-05 0.0537867 -0.88125
-1.33177e-05 0.0537883 -0.875 -1.38759e-05 0.0537898 -0.86875 -1.44383e-05 0.0537911 -0.8625 -1.50186e-05
0.0537923 -0.85625 -1.56107e-05 0.0537933 -0.85 -1.62109e-05 0.0537942 -0.84375 -1.68192e-05 0.053795
-0.8375 -1.7436e-05 0.0537955 -0.83125 -1.80551e-05 0.053796 -0.825 -1.86756e-05 0.0537962 -0.81875
-1.92975e-05 0.0537963 -0.8125 -1.99247e-05 0.0537963 -0.80625 -2.05643e-05 0.0537961 -0.8 -2.11976e-05
0.0537958 -0.79375 -2.18213e-05 0.0537953 -0.7875 -2.24338e-05 0.0537947 -0.78125 -2.3035e-05 0.0537938
-0.775 -2.36255e-05 0.0537928 -0.76875 -2.42016e-05 0.0537916 -0.7625 -2.47619e-05 0.0537902 -0.75625
-2.53063e-05 0.0537885 -0.75 -2.58348e-05 0.0537867 -0.74375 -2.63492e-05 0.0537848 -0.7375 -2.68525e-05
0.0537827 -0.73125 -2.73444e-05 0.0537804 -0.725 -2.78252e-05 0.0537779 -0.71875 -2.82948e-05 0.0537752
-0.7125 -2.87545e-05 0.0537723 -0.70625 -2.92099e-05 0.053769 -0.7 -2.96589e-05 0.0537655 -0.69375
-3.01017e-05 0.0537616 -0.6875 -3.05379e-05 0.0537576 -0.68125 -3.0971e-05 0.0537533 -0.675 -3.13961e-05
0.0537489 -0.66875 -3.18125e-05 0.0537441 -0.6625 -3.22208e-05 0.0537388 -0.65625 -3.2621e-05 0.0537331
-0.65 -3.3015e-05 0.053727 -0.64375 -3.3397e-05 0.0537202 -0.6375 -3.37638e-05 0.0537127 -0.63125
-3.41152e-05 0.0537047 -0.625 -3.44509e-05 0.053696 -0.61875 -3.47758e-05 0.0536871 -0.6125 -3.50775e-05
0.0536776 -0.60625 -3.53567e-05 0.0536673 -0.6 -3.56151e-05 0.0536561 -0.59375 -3.58525e-05 0.053644
-0.5875 -3.60732e-05 0.0536309 -0.58125 -3.62823e-05 0.0536165 -0.575 -3.6474e-05 0.0536008 -0.56875
-3.66481e-05 0.0535836 -0.5625 -3.68025e-05 0.0535654 -0.55625 -3.69424e-05 0.0535465 -0.55 -3.70661e-05
0.0535264 -0.54375 -3.71678e-05 0.0535048 -0.5375 -3.72474e-05 0.0534813 -0.53125 -3.73047e-05 0.0534559
-0.525 -3.73452e-05 0.0534285 -0.51875 -3.73753e-05 0.0533984 -0.5125 -3.73844e-05 0.0533655 -0.50625
-3.73723e-05 0.0533299 -0.5 -3.73389e-05 0.053292 -0.49375 -3.72953e-05 0.0532526 -0.4875 -3.728e-05
0.053211 -0.48125 -3.72846e-05 0.0531662 -0.475 -3.73102e-05 0.0531173 -0.46875 -3.73568e-05 0.0530643
-0.4625 -3.74383e-05 0.0530072 -0.456249 -3.75917e-05 0.0529438 -0.449999 -3.7799e-05 0.0528741 -0.443749
-3.80609e-05 0.052798 -0.437499 -3.8377e-05 0.0527171 -0.431248 -3.8767e-05 0.0526328 -0.424998 -3.92478e-05
0.052543 -0.418747 -3.97955e-05 0.0524459 -0.412497 -4.04142e-05 0.0523389 -0.406246 -4.1105e-05 0.0522219
-0.399994 -4.18973e-05 0.0520949 -0.393742 -4.28581e-05 0.0519521 -0.387491 -4.39504e-05 0.0517935 -0.38124
-4.51762e-05 0.0516189 -0.374985 -4.65248e-05 0.0514337 -0.36873 -4.80297e-05 0.0512399 -0.362475 -4.97957e-05
0.0510328 -0.356221 -5.17632e-05 0.0508103 -0.349967 -5.39974e-05 0.0505622 -0.343709 -5.65058e-05 0.0502881
-0.337447 -5.93959e-05 0.0499879 -0.331188 -6.28987e-05 0.0496405 -0.324931 -6.6923e-05 0.0492449 -0.318678
-7.14546e-05 0.0488045 -0.3124 -7.63057e-05 0.048344 -0.306129 -8.15537e-05 0.0478652 -0.299861 -8.75096e-05
0.0473493 -0.293595 -9.38619e-05 0.0467961 -0.287334 -0.000100768 0.0461953 -0.281044 -0.000108422 0.045534
[...]
POINT_DATA 14640
FIELD attributes 3
age 1 14640 float
0 1.00185e-05 2.00369e-05 3.00554e-05 4.00738e-05 5.00923e-05 0.000275984 0.000501881 0.000727779 0.000953677 0.00125577
0.00132772 0.00139967 0.00147162 0.00154357 0.00161551 0.0019286 0.00224168 0.00255477 0.00286786 0.00318094
0.00349405 0.00380719 0.00412032 0.00443345 0.00474659 0.00505972 0.00537285 0.00568599 0.00599912 0.00631225
0.00662541 0.00693858 0.00725175 0.00756493 0.0078781 0.00819128 0.00850445 0.00881763 0.0091308 0.00944398
0.00975718 0.0100704 0.0103836 0.0106969 0.0110101 0.0113233 0.0116365 0.0119498 0.012263 0.0125762
0.0128895 0.0132028 0.013516 0.0138293 0.0141426 0.0144559 0.0147692 0.0150825 0.0153958 0.015709
0.0160224 0.0163358 0.0166492 0.0169625 0.0172759 0.0175893 0.0179027 0.0182161 0.0185295 0.0188429
0.0191563 0.0194698 0.0197833 0.0200968 0.0204103 0.0207238 0.0210373 0.0213508 0.0216643 0.0219778
0.0222914 0.022605 0.0229187 0.0232323 0.023546 0.0238596 0.0241733 0.0244869 0.0248006 0.0251142
0.025428 0.0257419 0.0260557 0.0263696 0.0266834 0.0269973 0.0273111 0.027625 0.0279388 0.0282527
0.0285667 0.0288809 0.029195 0.0295092 0.0298234 0.0301375 0.0304517 0.0307659 0.0310801 0.0313942
0.0317087 0.0320233 0.032338 0.0326526 0.0329672 0.033282 0.0335968 0.0339115 0.0342263 0.034541
0.0348564 0.035172 0.0354876 0.0358032 0.0361188 0.0364347 0.0367507 0.0370666 0.0373825 0.0376983
0.0380144 0.0383336 0.0386526 0.0389714 0.0392899 0.0394493 0.0396087 0.039768 0.0399274 0.0400866
0.0402457 0.0404048 0.0405638 0.0407228 0.0408818 0.04104 0.0411983 0.0413567 0.0415149 0.0416731
0.0418303 0.0419875 0.0421446 0.0423017 0.0424587 0.0426159 0.0427732 0.0429304 0.0430876 0.0432447
0.0434019 0.0435591 0.0437162 0.0438734 0.0440304 0.0441897 0.04435 0.0445103 0.0446706 0.044831
0.0449941 0.0451574 0.0453208 0.0454841 0.0456478 0.0458037 0.045975 0.0461643 0.0463759 0.0466236
0 7.58161e-06 1.51642e-05 2.27478e-05 3.03324e-05 3.77727e-05 4.07525e-05 4.37325e-05 4.67127e-05 4.9693e-05
5.26735e-05 0.00038205 0.00071148 0.00104093 0.00137039 0.00169986 0.00202933 0.00235892 0.00268862 0.00301843
0.00334838 0.00367847 0.00400872 0.00433908 0.00466957 0.00500016 0.00533088 0.00566169 0.00599261 0.00632363
0.00665475 0.006986 0.00731739 0.0076489 0.00798054 0.00831229 0.00864417 0.0089762 0.00930838 0.0096407
0.00997317 0.0103058 0.0106386 0.0109716 0.0113047 0.011638 0.0119715 0.0123051 0.0126389 0.0129729
0.0133071 0.0136414 0.013976 0.0143107 0.0146457 0.0149808 0.0153162 0.0156518 0.0159877 0.0163239
0.0166603 0.0169971 0.0173342 0.0176717 0.0180095 0.0183476 0.0186861 0.019025 0.0193642 0.0197038
0.0200437 0.020384 0.0207247 0.0210658 0.0214073 0.0217492 0.0220915 0.0224343 0.0227775 0.0231213
0.0234656 0.0238104 0.0241557 0.0245017 0.0248482 0.0251954 0.0255431 0.0258915 0.0262406 0.0265904
0.0269409 0.0272921 0.027644 0.0279968 0.0283504 0.0287049 0.0290603 0.0294167 0.0297742 0.0301329
0.0304927 0.0308536 0.0312159 0.0315795 0.0319446 0.0323113 0.0326794 0.0330493 0.033421 0.0337945
0.0341699 0.0345469 0.0349259 0.0353067 0.0356897 0.0360753 0.0364634 0.036855 0.0372503 0.0376491
0.0380518 0.0384566 0.0388648 0.0392763 0.0396909 0.0401105 0.0405342 0.0409591 0.0413851 0.0418122
0.0422491 0.0424672 0.0426852 0.0429033 0.0431211 0.0433416 0.0435598 0.0437787 0.0439984 0.044219
0.0444441 0.044552 0.04466 0.0447682 0.0448765 0.044969 0.0450905 0.0452124 0.0453347 0.0454572
0.0455813 0.0458115 0.0460421 0.0462731 0.0465046 0.0467404 0.0469728 0.0472067 0.0474423 0.0476796
0.0479182 0.048111 0.0483048 0.0484992 0.0486941 0.0488765 0.0489252 0.048974 0.0490228 0.0490718
0.0491207 0.0493595 0.0495998 0.0498357 0.0500677 0.0502882 0.0505009 0.0507165 0.0509286 0.0511381
0.0513425 0.0515524 0.0517831 0.052043 0.0523018 0.0525589 0.052784 0.0530213 0.0532577 0.053493
0.0537704 0.0539563 0.0541651 0.05438 0.0545922 0.0553845 0.0553845 0.0553845 0.0553845 0.0553845
0.0553845 0.055424 0.0554646 0.0555062 0.0555488 0.0555959 0 8.06917e-06 1.61384e-05 2.42077e-05
3.2277e-05 4.03614e-05 4.28081e-05 4.52549e-05 4.77017e-05 5.01485e-05 5.25952e-05 0.000381325 0.000710064 0.00103881
0.00136757 0.00169633 0.00202507 0.00235392 0.00268289 0.00301197 0.00334116 0.00367047 0.0039999 0.00432945
0.00465912 0.00498893 0.00531886 0.00564891 0.00597906 0.00630932 0.00663969 0.00697016 0.00730075 0.00763147
0.00796231 0.00829328 0.00862437 0.00895562 0.00928702 0.00961857 0.00995026 0.0102821 0.0106141 0.0109463
0.0112786 0.0116111 0.0119438 0.0122766 0.0126097 0.0129429 0.0132762 0.0136098 0.0139435 0.0142774
0.0146116 0.0149459 0.0152805 0.0156153 0.0159504 0.0162858 0.0166215 0.0169575 0.0172938 0.0176304
0.0179674 0.0183047 0.0186424 0.0189805 0.019319 0.0196578 0.019997 0.0203365 0.0206765 0.0210168
0.0213576 0.0216988 0.0220404 0.0223826 0.0227253 0.0230685 0.0234123 0.0237565 0.0241014 0.0244469
0.0247931 0.0251399 0.0254874 0.0258357 0.0261848 0.0265347 0.0268854 0.0272368 0.0275891 0.0279423
0.0282965 0.0286518 0.0290082 0.0293661 0.0297255 0.0300862 0.0304483 0.0308117 0.0311768 0.0315436
0.0319122 0.0322831 0.0326564 0.0330326 0.0334115 0.0337927 0.0341769 0.0345636 0.0349535 0.0353466
0.0357429 0.0361445 0.0365523 0.0369681 0.0373908 0.0378204 0.0382655 0.0384381 0.0386114 0.0387855
0.0389603 0.0390686 0.039367 0.0396674 0.0399697 0.0402738 0.0405892 0.0408272 0.0410643 0.0413005
0.0415362 0.041776 0.0420154 0.0422554 0.0424953 0.0427346 0.0429622 0.0429673 0.0429724 0.0429776
0.0429827 0.0429879 0.0432322 0.0434771 0.0437228 0.0439688 0.0442389 0.0444793 0.0447187 0.0449572
0.0451947 0.0453865 0.0454111 0.0454358 0.0454605 0.0454852 0.0455099 0.045764 0.0460173 0.0462699
0.0465215 0.0467761 0.0469155 0.0470595 0.0472162 0.0473619 0.0475086 0.0476143 0.0477198 0.0478252
0.0479306 0.0480359 0.0482842 0.0485491 0.048869 0.0491942 0.0494761 0.0496787 0.0498504 0.0500175
0.050184 0.0503095 0.0503742 0.0504391 0.0505041 0.0505691 0.0506341 0.0509008 0.0511636 0.0514385
0.0517387 0.0520838 0.0524245 0.0526776 0.0529079 0.053137 0.0533832 0.0534295 0.0534735 0.0535152
0.0535585 0.053602 0.0538853 0.0541913 0.0545217 0.05489 0.0553113 0.0556529 0.056027 0.0564354
0.056891 0.0574268 0.0575601 0.0577045 0.0578557 0.057941 0.058846 0.059157 0.0595295 0.0599593
0.0604692 0.0618541 0 9.0666e-06 1.81333e-05 2.72e-05 3.62668e-05 4.53737e-05 4.6812e-05 4.82502e-05
4.96885e-05 5.11267e-05 5.2565e-05 0.000381104 0.00070966 0.00103823 0.00136682 0.00169543 0.00202405 0.00235279
0.00268165 0.00301063 0.00333973 0.00366895 0.00399829 0.00432777 0.00465737 0.0049871 0.00531696 0.00564694
0.00597703 0.00630723 0.00663754 0.00696796 0.00729852 0.0076292 0.00796001 0.00829095 0.00862203 0.00895325
0.00928463 0.00961617 0.00994786 0.0102797 0.0106117 0.0109439 0.0112763 0.0116088 0.0119415 0.0122744
0.0126075 0.0129407 0.0132742 0.0136078 0.0139417 0.0142757 0.01461 0.0149445 0.0152792 0.0156141
0.0159494 0.016285 0.0166209 0.016957 0.0172935 0.0176304 0.0179676 0.0183052 0.0186432 0.0189816
0.0193204 0.0196596 0.0199992 0.0203392 0.0206797 0.0210206 0.021362 0.0217039 0.0220463 0.0223892
0.0227328 0.0230769 0.0234217 0.0237671 0.0241132 0.02446 0.0248076 0.025156 0.0255051 0.0258553
0.0262063 0.0265584 0.0269113 0.0272653 0.0276205 0.027977 0.0283347 0.0286938 0.0290543 0.0294167
0.0297809 0.030147 0.0305151 0.0307906 0.0310676 0.0313461 0.0316263 0.0317334 0.0318655 0.0319979
0.0321307 0.0322638 0.0323973 0.0326943 0.0329937 0.0332958 0.0336004 0.0336059 0.0337576 0.0339099
0.0340629 0.0342166 0.0343711 0.0347799 0.0352003 0.0356327 0.0360776 0.0365429 0.0370166 0.0374995
0.0379955 0.0385049 0.039052 0.0391542 0.0392567 0.0393595 0.0394625 0.0395325 0.0396263 0.0397202
0.0398144 0.0399087 0.0399865 0.0400769 0.0401675 0.0402583 0.0403494 0.0404427 0.0407289 0.0410188
0.041313 0.0416107 0.0419622 0.0421766 0.0423921 0.0426084 0.0428245 0.0429631 0.0431096 0.043256
0.0434023 0.0435483 0.0437052 0.0439764 0.0442445 0.0445089 0.0447681 0.045007 0.0451125 0.0452176
0.0453222 0.0454264 0.0455292 0.0457932 0.0460764 0.0463991 0.0467142 0.0470697 0.0471186 0.0471675
0.0472163 0.0472651 0.0473141 0.047627 0.047961 0.0483589 0.0487239 0.04902 0.0490295 0.0490388
0.0490481 0.0490574 0.0490667 0.049362 0.0496538 0.0499894 0.0503403 0.0506525 0.0507184 0.0507791
0.0508354 0.0508939 0.0509537 0.0512253 0.0514996 0.0517756 0.0520552 0.0523739 0.0525763 0.0527345
0.0528641 0.0530107 0.0531684 0.0533931 0.0536225 0.0538599 0.054119 0.0545518 0.054565 0.0545783
0.0545917 0.0546051 0.0546185 0.0546429 0.0546669 0.0546912 0.0547157 0.0547401 0.0551666 0.0555795
0.0559776 0.0563573 0.0566962 0.0567129 0.0567294 0.0567457 0.0567618 0.0567781 0.0572213 0.0575659
0.057847 0.0580806 0.0584139 0.0586782 0.0589399 0.0591992 0.0594645 0.0597626 0.0600669 0.060298
0.0605333 0.0607963 0.0610923 0.0614737 0.0618282 0.0621588 0.0624495 0.0626896 0.0631958 0.0635776
0.0639307 0.0642696 0.0646532 0.064978 0.0651529 0.0652701 0.06538 0.0655449 0.0656496 0.0657691
0.0658943 0.0660191 0.0661655 0.0665985 0.066869 0.0670492 0.0672046 0.0673382 0.0674157 0.0674922
0.0675679 0.0676437 0.0677307 0.0678197 0.0678871 0.067953 0.0680191 0.0680817 0.0681364 0.0681911
0.0682459 0.0683008 0.0683775 0.0683887 0.0683999 0.0684112 0.0684224 0.0684336 0.0685043 0.0685751
0.068646 0.068717 0.0687871 0.068858 0.0689292 0.0690004 0.0690716 0.0691421 0.0692131 0.0692843
0.0693555 0.0694268 0.0694975 0.0695686 0.0696399 0.0697113 0.0697828 0.069854 0.0699254 0.069997
0.0700685 0.0701402 0.0702117 0.0702493 0.0702869 0.0703246 0.0703624 0.070404 0.0704374 0.0704708
0.0705043 0.0705378 0.0705713 0.0706436 0.0707161 0.0707886 0.0708611 0.0709335 0.0710061 0.0710787
0.0711514 0.0712242 0.071297 0.0713698 0.0714427 0.0715156 0.0715886 0.0716616 0.0717346 0.0718076
0.0718806 0.0719535 0.0720265 0.0720518 0.0720771 0.0721024 0.0721277 0.0721447 0.072194 0.0722432
0.0722924 0.0723416 0.0723908 0.0724635 0.0725362 0.0726089 0.0726815 0.0727542 0.0728266 0.0728991
0.0729714 0.0730437 0.0731161 0.0731881 0.0732601 0.0733321 0.073404 0.0734759 0.0735476 0.0736194
0.0736912 0.0737628 0.0738344 0.0739056 0.0739768 0.0740481 0.0741192 0.0741908 0.0742617 0.074333
0.0744042 0.0744754 0.0745471 0.0746246 0.0747019 0.074779 0.0748559 0.0748868 0.0748895 0.0748922
0.074895 0.0748977 0.0749004 0.0749716 0.0750423 0.0751128 0.0751834 0.0752553 0.0753267 0.0753979
0.0754691 0.0755404 0.075613 0.0756849 0.075757 0.0758295 0.0759021 0.0759754 0.0760236 0.076072
0.0761205 0.0761692 0.0762166 0.076242 0.0762676 0.0762931 0.0763188 0.0763445 0.0764181 0.0764921
0.0765664 0.0766412 0.0767163 0.0768047 0.0768855 0.0769668 0.0770485 0.0771316 0.077183 0.0772349
0.0772869 0.0773392 0.0773868 0.0774184 0.0774501 0.0774819 0.0775138 0.0775461 0.0777015 0.0778598
0.07802 0.0781829 0.0783776 0.0786876 0.0789641 0.0792342 0.0794759 0.0796993 0.0797041 0.0797087
0.0797134 0.079718 0.0797227 0.0798888 0.0800555 0.0802342 0.0804295 0.0806033 0.0806665 0.0807258
0.0807814 0.0808343 0.0808901 0.0811545 0.0813873 0.0816219 0.0818706 0.0821241 0.0822031 0.0822824
0.0823619 0.0824416 0.0825378 0.0826853 0.0828335 0.0829823 0.0831317 0.083286 0.0833064 0.0833268
0.0833471 0.0833675 0.0833876 0.0836114 0.0838342 0.0840564 0.084278 0.0844965 0.0847401 0.0849836
0.0852269 0.0854704 0.085713 0.0857176 0.0857221 0.0857267 0.0857313 0.0857359 0.0859752 0.0862153
0.0864562 0.0866978 0.0869401 0.0871794 0.0874192 0.0876596 0.0879006 0.0881629 0.0881649 0.0881669
0.0881689 0.0881708 0.0881728 0.0884175 0.0886626 0.088908 0.0891536 0.0893877 0.0896228 0.0898573
0.0900911 0.0903242 0.0905456 0.0907802 0.091016 0.0912491 0.0914795 0.0919399 0.0920939 0.0922463
0.0923973 0.0925467 0.0926928 0.0928894 0.0930831 0.0932743 0.0934631 0.0936485 0.0938322 0.0940139
0.0941942 0.094373 0.0945504 0.0947269 0.0949016 0.0950747 0.0952464 0.0954167 0.095586 0.0957544
0.0959222 0.0960895 0.0962564 0.0964229 0.0965885 0.0967534 0.0969175 0.0970809 0.0972437 0.0974062
0.0975685 0.0977305 0.0978923 0.0979782 0.098064 0.0981497 0.0982353 0.0983172 0.0985538 0.0987895
0.0990247 0.0992597 0.0994946 0.0996538 0.0998129 0.0999717 0.10013 0.100288 0.100446 0.100604
0.100761 0.100918 0.101074 0.10123 0.101386 0.101541 0.101696 0.10185 0.102004 0.102158
0.102312 0.102465 0.102618 0.102771 0.102923 0.103075 0.103227 0.103379 0.103531 0.103682
0.103833 0.103984 0.104135 0.104286 0.104436 0.104587 0.104738 0.104888 0.105038 0.105189
0.105339 0.10549 0.10564 0.105791 0.105941 0.106092 0.106242 0.106393 0.106543 0.106694
0.106844 0.106995 0.107145 0.107296 0.107447 0.107597 0.107748 0.107898 0.108049 0.108199
0.108349 0.1085 0.10865 0.108801 0.108951 0.109101 0.109252 0.109402 0.109553 0.109703
0.109854 0.110005 0.110155 0.110306 0.110458 0.110609 0.11076 0.110912 0.111064 0.111216
0.111368 0.111521 0.111674 0.111827 0.111981 0.112134 0.112289 0.112443 0.112598 0.112752
0.112908 0.113063 0.113219 0.11353 0.113842 0.114155 0.114468 0.114781 0.115094 0.115407
0.11572 0.116034 0.116347 0.11666 0.116974 0.117288 0.117602 0.117916 0.118231 0.118547
0.118862 0.119179 0.119496 0.119813 0.120131 0.12045 0.120769 0.121089 0.12141 0.121733
0.122055 0.122379 0.122704 0.12303 0.123358 0.123686 0.124016 0.124348 0.124681 0.125017
0.125354 0.125693 0.126035 0.126378 0.126726 0.127076 0.127429 0.127787 0.128146 0.128514
0.128884 0.12926 0.129644 0.130029 0.130429 0.130836 0.131252 0.131686 0.132121 0.132581
0.133055 0.133545 0.134093 0.134628 0.135191 0.135768 0.136349 0.137212 0.137224 0.137236
0.137248 0.13726 0.137272 0.137899 0.13853 0.139166 0.139811 0.140547 0.140859 0.14117
0.141479 0.141786 0.142143 0.142153 0.142164 0.142174 0.142184 0.142194 0.142501 0.142817
0.143139 0.143469 0.143852 0.144004 0.144156 0.144308 0.144459 0.144571 0.144724 0.144877
0.145029 0.145179 0.145386 0.145426 0.145466 0.145506 0.145546 0.145585 0.145896 0.146202
0.146498 0.146785 0.14697 0.146987 0.147005 0.147023 0.147041 0.147059 0.147284 0.147511
0.147738 0.147962 0.148252 0.148439 0.148632 0.148824 0.149013 0.14905 0.149088 0.149127
0.149165 0.149204 0.149243 0.149422 0.1496 0.149774 0.149948 0.150168 0.15034 0.150507
0.150668 0.150831 0.151028 0.151048 0.151068 0.151088 0.151109 0.151126 0.151265 0.151402
0.151538 0.151672 0.151815 0.151967 0.152109 0.152244 0.152378 0.152558 0.152709 0.152848
0.152982 0.15312 0.153282 0.153355 0.153426 0.153495 0.153545 0.153979 0.154109 0.154237
0.154364 0.15449 0.154613 0.154751 0.154878 0.155 0.155121 0.155256 0.155392 0.155522
0.15565 0.155773 0.155896 0.155958 0.156017 0.156076 0.156135 0.156194 0.156257 0.156317
0.156378 0.156439 0.1565 0.156564 0.156625 0.156687 0.156748 0.15681 0.156874 0.156935
0.156997 0.157058 0.157118 0.157245 0.15737 0.157495 0.157624 0.157758 0.1579 0.15803
0.158158 0.158284 0.158422 0.158565 0.158697 0.15882 0.158944 0.15909 0.159236 0.159372
0.1595 0.159632 0.159784 0.159934 0.160076 0.160221 0.160369 0.160459 0.160472 0.160485
0.160498 0.160511 0.160524 0.160676 0.160827 0.160977 0.161124 0.16128 0.161433 0.16158
0.161724 0.161868 0.162048 0.162207 0.162361 0.162511 0.162664 0.162848 0.162914 0.16298
0.163047 0.163114 0.16315 0.163254 0.163359 0.163465 0.16357 0.163682 0.163848 0.164022
0.164198 0.164375 0.164598 0.164777 0.164964 0.165154 0.165343 0.165577 0.165655 0.165734
0.165814 0.165893 0.16596 0.166259 0.166566 0.166882 0.167205 0.167549 0.167946 0.168386
0.168858 0.169342 0.169963 0.170368 0.170833 0.171327 0.171808 0.172382 0.17255 0.172727
0.172902 0.173076 0.173208 0.173494 0.173787 0.174087 0.174396 0.174721 0.175181 0.175713
0.176275 0.176864 0.177472 0.177951 0.178513 0.179088 0.179655 0.180228 0.180702 0.181233
0.181756 0.182269 0.182776 0.183241 0.18373 0.184212 0.184688 0.185158 0.185605 0.186061
0.186512 0.186958 0.1874 0.187831 0.188264 0.188693 0.189119 0.18954 0.18978 0.19002
0.190259 0.190496 0.19084 0.190991 0.191143 0.191293 0.191444 0.191594 0.191997 0.192397
0.192795 0.19319 0.193583 0.193973 0.194361 0.194747 0.195132 0.195514 0.195894 0.196274
0.196651 0.197028 0.197402 0.197776 0.198148 0.198519 0.198889 0.199257 0.199624 0.199991
0.200356 0.20072 0.201082 0.201444 0.201805 0.202165 0.202524 0.202882 0.203239 0.203595
0.20395 0.204305 0.204658 0.205011 0.205363 0.205715 0.206066 0.206415 0.206765 0.207113
0.207461 0.207808 0.208155 0.208501 0.208846 0.209191 0.209535 0.209879 0.210222 0.210565
0.210907 0.211248 0.21159 0.211931 0.212271 0.212611 0.212951 0.21329 0.213629 0.213967
0.214305 0.214643 0.21498 0.215317 0.215653 0.215989 0.216324 0.216659 0.216994 0.217329
0.217663 0.217997 0.21833 0.218663 0.218996 0.219328 0.219661 0.219992 0.220324 0.220655
0.220986 0.221317 0.221647 0.221978 0.222307 0.222637 0.222966 0.223296 0.223625 0.223953
0.224282 0.22461 0.224938 0.225266 0.225594 0.225921 0.226249 0.226576 0.226903 0.227229
0.227556 0.227882 0.228208 0.228534 0.22886 0.229185 0.229511 0.229836 0.230161 0.230486
0.23081 0.231135 0.231459 0.231783 0.232107 0.232431 0.232755 0.233078 0.233402 0.233725
0.234048 0.234371 0.234693 0.235016 0.235338 0.235661 0.235983 0.236305 0.236626 0.236948
0.23727 0.237591 0.237912 0.238233 0.238555 0.238876 0.239197 0.239517 0.239838 0.240159
0.240479 0.2408 0.24112 0.24144 0.24176 0.24208 0.2424 0.24272 0.24304 0.24336
0.243679 0.243999 0.244318 0.244637 0.244956 0.245275 0.245594 0.245913 0.246232 0.246551
0.24687 0.247188 0.247507 0.247825 0.248143 0.248462 0.24878 0.249098 0.249416 0.249734
0.250052 0.25037 0.250687 0.251005 0.251323 0.25164 0.251958 0.252275 0.252593 0.25291
0.253227 0.253545 0.253862 0.254179 0.254496 0.254813 0.25513 0.255447 0.255763 0.25608
0.256397 0.256713 0.25703 0.257347 0.257663 0.25798 0.258296 0.258612 0.258929 0.259245
0.259561 0.259877 0.260193 0.260509 0.260825 0.261141 0.261457 0.261773 0.262089 0.262405
0.26272 0.263036 0.263352 0.263667 0.263983 0.264299 0.264614 0.26493 0.265245 0.265561
0.265876 0.266191 0.266507 0.266822 0.267137 0.267452 0.267768 0.268083 0.268398 0.268713
0.269028 0.269343 0.269658 0.269973 0.270288 0.270603 0.270917 0.271232 0.271547 0.271862
0.272176 0.272491 0.272806 0.27312 0.273435 0.27375 0.274064 0.274379 0.274693 0.275008
0.275322 0.275637 0.275951 0.276265 0.27658 0.276894 0.277209 0.277523 0.277837 0.278151
0.278466 0.27878 0.279094 0.279408 0.279722 0.280037 0.280351 0.280665 0.280979 0.281293
0.281607 0.281921 0.282235 0.282549 0.282863 0.283177 0.283491 0.283805 0.284119 0.284433
0.284746 0.28506 0.285374 0.285688 0.286002 0.286316 0.286629 0.286943 0.287257 0.28757
0.287884 0.288198 0.288512 0.288825 0.289139 0.289452 0.289766 0.29008 0.290393 0.290707
0.29102 0.291334 0.291648 0.291961 0.292275 0.292588 0.292902 0.293215 0.293529 0.293842
0.294156 0.294469 0.294783 0.295096 0.295409 0.295723 0.296036 0.29635 0.296663 0.296976
0.29729 0.297603 0.297916 0.29823 0.298543 0.298856 0.29917 0.299483 0.299796 0.300109
0.300423 0.300736 0.301049 0.301362 0.301676 0.301989 0.302302 0.302615 0.302929 0.303242
0.303555 0.303868 0.304181 0.304495 0.304808 0.305121 0.305434 0.305747 0.30606 0.306373
0.306686 0.307 0.307313 0.307626 0.307939 0.308252 0.308565 0.308878 0.309191 0.309504
0.309817 0.31013 0.310443 0.310756 0.311069 0.311382 0.311695 0.312009 0.312322 0.312634
0.312948 0.31326 0.313573 0.313886 0.314199 0.314512 0.314825 0.315138 0.315451 0.315764
0.316077 0.31639 0.316703 0.317016 0.317329 0.317642 0.317955 0.318268 0.318581 0.318894
0.319206 0.319519 0.319832 0.320145 0.320458 0.320771 0.321084 0.321397 0.32171 0.322022
0.322335 0.322648 0.322961 0.323274 0.323587 0.323899 0.324212 0.324525 0.324838 0.325151
0.325464 0.325776 0.326089 0.326402 0.326715 0.327028 0.327341 0.327653 0.327966 0.328279
0.328592 0.328905 0.329217 0.32953 0.329843 0.330156 0.330468 0.330781 0.331094 0.331407
0.33172 0.332032 0.332345 0.332658 0.332971 0.333283 0.333596 0.333909 0.334222 0.334534
0.334847 0.33516 0.335473 0.335785 0.336098 0.336411 0.336723 0.337036 0.337349 0.337662
0.337974 0.338287 0.3386 0.338912 0.339225 0.339538 0.339851 0.340163 0.340476 0.340789
0.341101 0.341414 0.341727 0.342039 0.342352 0.342665 0.342978 0.34329 0.343603 0.343916