# vtk DataFile Version 2.0
tracks
ASCII
DATASET POLYDATA
POINTS 11695 float
-1.001 1e-07 0.0011 -1.0008 9.92283e-08 0.0011 -1.0006 9.84565e-08 0.0011 -1.0004 9.76848e-08
0.0011 -1.0002 9.69131e-08 0.00110001 -1 9.61413e-08 0.00110001 -0.995018 7.6913e-08 0.00110005
-0.990036 5.43119e-08 0.00110009 -0.985053 3.16994e-08 0.00110013 -0.980071 9.07561e-09 0.00110017 -0.978074
2.96662e-28 0.00110019 -0.976209 -8.47348e-09 0.0011002 -0.974344 -1.69486e-08 0.00110022 -0.972479 -2.54254e-08
0.00110023 -0.970615 -3.39039e-08 0.00110025 -0.96875 -4.23841e-08 0.00110026 -0.9625 -7.07868e-08 0.00110031
-0.95625 -9.923e-08 0.00110036 -0.95 -1.2769e-07 0.00110042 -0.94375 -1.56167e-07 0.00110047 -0.9375
-1.84662e-07 0.00110052 -0.93125 -2.22685e-07 0.00110059 -0.925 -2.69975e-07 0.00110068 -0.91875 -3.17294e-07
0.00110078 -0.9125 -3.64643e-07 0.00110087 -0.90625 -4.12021e-07 0.00110097 -0.9 -4.59208e-07 0.00110106
-0.89375 -5.06657e-07 0.00110116 -0.8875 -5.54137e-07 0.00110125 -0.88125 -6.01648e-07 0.00110135 -0.875
-6.49189e-07 0.00110144 -0.86875 -7.01659e-07 0.00110156 -0.8625 -7.54069e-07 0.0011017 -0.85625 -8.06516e-07
0.00110184 -0.85 -8.59001e-07 0.00110198 -0.84375 -9.11524e-07 0.00110212 -0.8375 -9.63547e-07 0.00110226
-0.83125 -1.01617e-06 0.00110239 -0.825 -1.06882e-06 0.00110253 -0.81875 -1.12152e-06 0.00110267 -0.8125
-1.17426e-06 0.00110281 -0.80625 -1.22283e-06 0.00110296 -0.8 -1.26704e-06 0.00110311 -0.79375 -1.3113e-06
0.00110325 -0.7875 -1.35559e-06 0.0011034 -0.78125 -1.39991e-06 0.00110355 -0.775 -1.44336e-06 0.0011037
-0.76875 -1.48781e-06 0.00110385 -0.7625 -1.53229e-06 0.00110399 -0.75625 -1.57681e-06 0.00110414 -0.75
-1.62136e-06 0.00110429 -0.74375 -1.66151e-06 0.00110444 -0.7375 -1.70194e-06 0.00110457 -0.73125 -1.74241e-06
0.00110471 -0.725 -1.78291e-06 0.00110484 -0.71875 -1.82345e-06 0.00110498 -0.7125 -1.86269e-06 0.00110511
-0.70625 -1.90339e-06 0.00110524 -0.7 -1.94412e-06 0.00110538 -0.69375 -1.98488e-06 0.00110551 -0.6875
-2.02569e-06 0.00110565 -0.68125 -2.07252e-06 0.00110576 -0.675 -2.12493e-06 0.00110583 -0.66875 -2.17739e-06
0.0011059 -0.6625 -2.2299e-06 0.00110597 -0.65625 -2.28245e-06 0.00110604 -0.65 -2.33316e-06 0.00110611
-0.64375 -2.38597e-06 0.00110618 -0.6375 -2.43882e-06 0.00110625 -0.63125 -2.49173e-06 0.00110632 -0.625
-2.54469e-06 0.00110639 -0.61875 -2.59436e-06 0.00110641 -0.6125 -2.63458e-06 0.00110633 -0.60625 -2.67485e-06
0.00110626 -0.6 -2.71515e-06 0.00110619 -0.59375 -2.75549e-06 0.00110611 -0.5875 -2.79313e-06 0.00110604
-0.58125 -2.83377e-06 0.00110596 -0.575 -2.87446e-06 0.00110589 -0.56875 -2.91519e-06 0.00110582 -0.5625
-2.95597e-06 0.00110574 -0.55625 -2.99276e-06 0.00110556 -0.55 -3.03282e-06 0.00110525 -0.54375 -3.07292e-06
0.00110494 -0.5375 -3.11306e-06 0.00110463 -0.53125 -3.15325e-06 0.00110431 -0.525 -3.18955e-06 0.001104
-0.51875 -3.23057e-06 0.00110369 -0.5125 -3.27164e-06 0.00110338 -0.50625 -3.31277e-06 0.00110307 -0.5
-3.35394e-06 0.00110275 -0.49375 -3.39701e-06 0.00110226 -0.4875 -3.44757e-06 0.00110149 -0.48125 -3.49819e-06
0.00110073 -0.475 -3.54888e-06 0.00109996 -0.46875 -3.59962e-06 0.0010992 -0.4625 -3.64391e-06 0.00109844
-0.45625 -3.6965e-06 0.00109767 -0.45 -3.74918e-06 0.00109691 -0.44375 -3.80196e-06 0.00109615 -0.4375
-3.85483e-06 0.00109539 -0.431249 -3.92372e-06 0.00109424 -0.424999 -4.01367e-06 0.00109253 -0.418749 -4.10378e-06
0.00109083 -0.412499 -4.19406e-06 0.00108913 -0.406249 -4.2845e-06 0.00108743 -0.399998 -4.36249e-06 0.00108573
-0.393747 -4.45734e-06 0.00108403 -0.387496 -4.55254e-06 0.00108234 -0.381246 -4.64808e-06 0.00108065 -0.374995
-4.74397e-06 0.00107896 -0.368743 -4.86087e-06 0.00107644 -0.36249 -5.0056e-06 0.00107264 -0.356238 -5.15105e-06
0.00106885 -0.349986 -5.29721e-06 0.00106507 -0.343734 -5.4441e-06 0.00106131 -0.337478 -5.56102e-06 0.00105756
-0.331222 -5.72139e-06 0.00105381 -0.324967 -5.88372e-06 0.00105008 -0.318711 -6.04803e-06 0.00104636 -0.312455
-6.21433e-06 0.00104265 -0.306193 -6.42644e-06 0.00103694 -0.299931 -6.70053e-06 0.00102795 -0.293669 -6.97877e-06
0.00101904 -0.287406 -7.2612e-06 0.00101021 -0.281144 -7.54789e-06 0.00100145 -0.274873 -7.73574e-06 0.000992745
-0.268602 -8.07683e-06 0.000984079 -0.262332 -8.42769e-06 0.000975486 -0.256061 -8.78845e-06 0.000966965 -0.24979
-9.15927e-06 0.000958516 -0.243518 -9.63849e-06 0.000945516 -0.237246 -1.02985e-05 0.000926773 -0.230975 -1.09811e-05
0.000908413 -0.224703 -1.16869e-05 0.000890427 -0.218431 -1.24165e-05 0.000872808 -0.215291 -1.28536e-05 0.000864126
-0.21215 -1.3491e-05 0.000854022 -0.20901 -1.41594e-05 0.000844029 -0.205869 -1.48596e-05 0.000834147 -0.202729
-1.55922e-05 0.000824374 -0.19959 -1.57098e-05 0.000814837 -0.196451 -1.65248e-05 0.000805261 -0.193312 -1.73757e-05
0.000795788 -0.190173 -1.82632e-05 0.000786419 -0.187034 -1.91883e-05 0.00077715 -0.183908 -1.99355e-05 0.000766457
-0.180782 -2.09607e-05 0.000753618 -0.177656 -2.19932e-05 0.000740995 -0.17453 -2.30333e-05 0.000728584 -0.171403
-2.40811e-05 0.000716382 -0.168295 -2.41357e-05 0.000704495 -0.165187 -2.52132e-05 0.000692706 -0.162078 -2.62237e-05
0.000681121 -0.15897 -2.71653e-05 0.000669736 -0.155862 -2.80362e-05 0.000658547 -0.152748 -2.87746e-05 0.000643671
-0.149635 -2.95267e-05 0.000625228 -0.146522 -3.02327e-05 0.000607309 -0.143409 -3.08911e-05 0.000589899 -0.140296
-3.15005e-05 0.000572982 -0.137178 -3.14769e-05 0.000556334 -0.13406 -3.21509e-05 0.000540239 -0.130943 -3.28589e-05
0.000524619 -0.127825 -3.36021e-05 0.000509458 -0.124707 -3.43818e-05 0.000494745 -0.121536 -3.52196e-05 0.000477658
-0.118365 -3.67004e-05 0.000476162 -0.115193 -3.8597e-05 0.000474247 -0.112022 -4.093e-05 0.00047189 -0.108842
-4.37294e-05 0.000469063 -0.105632 -4.37294e-05 0.000469063 -0.102423 -5.0235e-05 0.000463697 -0.0992131 -5.83979e-05
0.000456964 -0.0960035 -6.83545e-05 0.000448752 -0.0927896 -8.02673e-05 0.000438926 -0.0897667 -8.02673e-05 0.000438926
-0.086744 -0.000105805 0.000424815 -0.0837215 -0.000140963 0.000405387 -0.0806991 -0.000189572 0.000378526 -0.0774275
-0.000263256 0.000337809 -1.001 1e-07 0.0537316 -1.00085 8e-08 0.0537316 -1.00069 5.99658e-08
0.0537317 -1.00054 3.98974e-08 0.0537318 -1.00038 1.97948e-08 0.0537318 -1.00023 3.05632e-28 0.0537319
-1.00019 -6.08118e-09 0.0537319 -1.00014 -1.21655e-08 0.0537319 -1.00009 -1.82529e-08 0.0537319 -1.00005
-2.43434e-08 0.053732 -1 -3.0437e-08 0.053732 -0.99375 -8.50752e-07 0.0537345 -0.9875 -1.69653e-06
0.0537369 -0.98125 -2.5724e-06 0.0537395 -0.975 -3.48146e-06 0.0537421 -0.96875 -4.42378e-06 0.0537449
-0.9625 -5.39827e-06 0.0537478 -0.95625 -6.4338e-06 0.0537509 -0.95 -7.52966e-06 0.0537543 -0.94375
-8.68595e-06 0.0537581 -0.9375 -9.90129e-06 0.053762 -0.93125 -1.11715e-05 0.053766 -0.925 -1.24986e-05
0.0537702 -0.91875 -1.38754e-05 0.0537747 -0.9125 -1.52985e-05 0.0537794 -0.90625 -1.6768e-05 0.0537844
-0.9 -1.82813e-05 0.0537898 -0.89375 -1.98059e-05 0.0537953 -0.8875 -2.13389e-05 0.053801 -0.88125
-2.28803e-05 0.0538069 -0.875 -2.44389e-05 0.0538131 -0.86875 -2.60242e-05 0.0538193 -0.8625 -2.76145e-05
0.0538257 -0.85625 -2.919e-05 0.0538322 -0.85 -3.07414e-05 0.0538387 -0.84375 -3.22684e-05 0.0538454
-0.8375 -3.3767e-05 0.0538522 -0.83125 -3.52342e-05 0.0538589 -0.825 -3.66657e-05 0.0538657 -0.81875
-3.80614e-05 0.0538724 -0.8125 -3.94267e-05 0.0538791 -0.80625 -4.07649e-05 0.0538858 -0.8 -4.20825e-05
0.0538926 -0.79375 -4.3371e-05 0.0538993 -0.7875 -4.46283e-05 0.0539059 -0.78125 -4.58546e-05 0.0539124
-0.775 -4.70467e-05 0.0539188 -0.76875 -4.8222e-05 0.053925 -0.7625 -4.93752e-05 0.053931 -0.75625
-5.05062e-05 0.0539368 -0.75 -5.16146e-05 0.0539425 -0.74375 -5.26955e-05 0.0539482 -0.7375 -5.37842e-05
0.0539539 -0.73125 -5.48751e-05 0.0539593 -0.725 -5.5969e-05 0.0539644 -0.71875 -5.70659e-05 0.0539692
-0.7125 -5.81616e-05 0.0539737 -0.70625 -5.92948e-05 0.0539779 -0.7 -6.04601e-05 0.0539816 -0.69375
-6.16576e-05 0.053985 -0.6875 -6.28898e-05 0.053988 -0.68125 -6.41583e-05 0.0539909 -0.675 -6.54638e-05
0.0539935 -0.66875 -6.67946e-05 0.0539958 -0.6625 -6.81463e-05 0.0539975 -0.65625 -6.95192e-05 0.0539987
-0.65 -7.09125e-05 0.0539993 -0.64375 -7.22951e-05 0.0539993 -0.6375 -7.36599e-05 0.0539987 -0.63125
-7.50068e-05 0.0539974 -0.625 -7.63363e-05 0.0539955 -0.61875 -7.76501e-05 0.0539932 -0.6125 -7.89147e-05
0.0539905 -0.60625 -8.01298e-05 0.053987 -0.6 -8.13002e-05 0.0539826 -0.59375 -8.24256e-05 0.0539773
-0.5875 -8.35082e-05 0.0539712 -0.58125 -8.45821e-05 0.0539639 -0.575 -8.56398e-05 0.0539555 -0.56875
-8.66813e-05 0.0539458 -0.5625 -8.77045e-05 0.0539353 -0.55625 -8.87116e-05 0.053924 -0.55 -8.97472e-05
0.053912 -0.54375 -9.08009e-05 0.0538987 -0.5375 -9.18722e-05 0.0538838 -0.53125 -9.29612e-05 0.0538674
-0.525 -9.40803e-05 0.0538495 -0.51875 -9.52382e-05 0.0538294 -0.5125 -9.64198e-05 0.0538071 -0.50625
-9.76254e-05 0.0537827 -0.5 -9.88507e-05 0.0537564 -0.49375 -0.000100101 0.0537291 -0.4875 -0.000101422
0.0537 -0.48125 -0.000102794 0.0536684 -0.475 -0.000104219 0.0536338 -0.46875 -0.000105699 0.053596
-0.4625 -0.000107256 0.0535552 -0.456249 -0.000108942 0.0535098 -0.449999 -0.00011073 0.0534599 -0.443749
-0.000112618 0.0534054 -0.437499 -0.00011461 0.0533473 -0.431248 -0.000116728 0.0532868 -0.424998 -0.000119036
0.0532226 -0.418747 -0.000121478 0.0531532 -0.412496 -0.000124059 0.053077 -0.406245 -0.000126781 0.0529939
-0.399993 -0.000129711 0.0529039 -0.393741 -0.000132887 0.0528035 -0.38749 -0.000136241 0.0526925 -0.381238
-0.000139773 0.0525708 -0.374985 -0.000143465 0.0524416 -0.36873 -0.000147351 0.052307 -0.362474 -0.000151606
0.0521638 -0.356219 -0.000156072 0.0520094 -0.349965 -0.000160802 0.0518381 -0.343708 -0.000165803 0.0516501
-0.337445 -0.000171281 0.0514452 -0.331184 -0.000177382 0.0512122 -0.324924 -0.000183907 0.0509509 -0.318665
-0.000190863 0.0506612 -0.312397 -0.00019817 0.0503558 -0.306124 -0.000205884 0.050037 -0.299853 -0.000214765
0.0496958 -0.293583 -0.00022409 0.0493324 -0.287316 -0.000233868 0.0489249 -0.281035 -0.000244134 0.0484707
[...]
POINT_DATA 11695
FIELD attributes 3
age 1 11695 float
0 1.00086e-05 2.00171e-05 3.00257e-05 4.00343e-05 5.00429e-05 0.000299367 0.000548704 0.00079804 0.00104738 0.00114735
0.00124067 0.00133399 0.00142731 0.00152063 0.00161395 0.00192674 0.00223952 0.0025523 0.00286509 0.00317787
0.00349068 0.00380351 0.00411633 0.00442916 0.00474199 0.00505481 0.00536764 0.00568047 0.0059933 0.00630612
0.00661897 0.00693185 0.00724474 0.00755762 0.0078705 0.00818338 0.00849626 0.00880914 0.00912202 0.0094349
0.00974781 0.0100607 0.0103737 0.0106866 0.0109996 0.0113125 0.0116254 0.0119384 0.0122513 0.0125643
0.0128772 0.0131903 0.0135033 0.0138163 0.0141293 0.0144423 0.0147553 0.0150683 0.0153813 0.0156944
0.0160074 0.0163205 0.0166336 0.0169467 0.0172598 0.0175728 0.0178859 0.018199 0.0185121 0.0188252
0.0191383 0.0194515 0.0197647 0.0200778 0.020391 0.0207042 0.0210173 0.0213305 0.0216437 0.0219569
0.0222701 0.0225833 0.0228966 0.0232099 0.0235232 0.0238364 0.0241497 0.024463 0.0247762 0.0250895
0.0254028 0.0257162 0.0260296 0.026343 0.0266564 0.0269698 0.0272832 0.0275966 0.02791 0.0282234
0.0285369 0.0288505 0.0291641 0.0294776 0.0297912 0.0301048 0.0304184 0.030732 0.0310456 0.0313592
0.0316729 0.0319868 0.0323007 0.0326146 0.0329284 0.0332424 0.0335565 0.0338705 0.0341845 0.0344986
0.034813 0.0351276 0.0354422 0.0357568 0.0360714 0.0363864 0.0367014 0.0370163 0.0373313 0.0376463
0.0379613 0.0382778 0.0385942 0.0389105 0.0392268 0.0393852 0.0395436 0.0397019 0.0398603 0.0400187
0.0401769 0.0403352 0.0404934 0.0406517 0.0408099 0.0409674 0.041125 0.0412826 0.0414402 0.0415977
0.0417542 0.0419108 0.0420674 0.0422239 0.0423805 0.0425373 0.0426942 0.042851 0.0430079 0.0431647
0.0433217 0.0434786 0.0436356 0.0437925 0.0439494 0.0441091 0.0442717 0.0444342 0.0445967 0.0447595
0.0449241 0.0450886 0.0452529 0.0454172 0.0455815 0.0457374 0.0459081 0.0460965 0.0463065 0.0465628
0 7.89882e-06 1.57981e-05 2.36978e-05 3.15981e-05 3.93645e-05 4.17466e-05 4.41288e-05 4.6511e-05 4.88932e-05
5.12755e-05 0.000371816 0.000692455 0.0010132 0.00133406 0.00165504 0.00197614 0.00229737 0.00261874 0.00294024
0.00326188 0.00358364 0.00390554 0.00422756 0.00454973 0.00487204 0.0051945 0.00551711 0.00583989 0.00616283
0.00648593 0.00680917 0.00713259 0.00745618 0.00777995 0.00810389 0.00842802 0.00875232 0.00907679 0.00940145
0.00972628 0.0100513 0.0103765 0.0107019 0.0110274 0.0113532 0.0116791 0.0120052 0.0123315 0.0126581
0.0129848 0.0133117 0.0136389 0.0139663 0.0142939 0.0146218 0.0149498 0.0152781 0.0156066 0.0159352
0.0162641 0.0165933 0.0169226 0.0172522 0.0175819 0.0179119 0.0182421 0.0185725 0.0189031 0.0192339
0.019565 0.0198963 0.0202279 0.0205598 0.0208919 0.0212243 0.021557 0.02189 0.0222232 0.0225568
0.0228907 0.0232249 0.0235594 0.0238943 0.0242295 0.024565 0.0249008 0.0252371 0.0255738 0.0259108
0.0262483 0.0265861 0.0269245 0.0272633 0.0276026 0.0279424 0.0282827 0.0286236 0.0289651 0.0293072
0.0296498 0.0299931 0.0303369 0.0306814 0.0310266 0.0313725 0.0317192 0.0320668 0.0324153 0.0327646
0.0331149 0.033466 0.0338179 0.0341708 0.0345248 0.0348801 0.035237 0.0355952 0.035955 0.0363162
0.0366791 0.0370432 0.0374084 0.0377745 0.0381425 0.0385132 0.0388876 0.0392633 0.0396401 0.0400182
0.0404001 0.0405912 0.0407826 0.0409745 0.0411667 0.0413603 0.0415539 0.0417476 0.0419414 0.0421355
0.0423305 0.0425252 0.0427202 0.0429156 0.0431109 0.0433084 0.0435035 0.0436984 0.0438933 0.0440882
0.044285 0.0444104 0.0445416 0.0446697 0.0447949 0.0449079 0.04498 0.0450522 0.0451244 0.0451966
0.0452692 0.045457 0.0456447 0.0458326 0.0460207 0.0462107 0.0464228 0.0466348 0.0468515 0.0470967
0.0473794 0.0476556 0.0479191 0.0482003 0.0484667 0.0487291 0.0489819 0.0492036 0.0494357 0.0496782
0.0498752 0.0501034 0.0503596 0.050652 0.0509927 0.0514165 0.051963 0.0524016 0.052845 0.053326
0.0558887 0.0562729 0.0566765 0.0570595 0.0574273 0.066349 0 5.99634e-06 1.19927e-05 1.79891e-05
2.39856e-05 2.99679e-05 3.42513e-05 3.85348e-05 4.28183e-05 4.71019e-05 5.13854e-05 0.000372552 0.000693839 0.00101525
0.00133678 0.00165845 0.00198028 0.00230226 0.0026244 0.00294669 0.00326914 0.00359175 0.0039145 0.00423739
0.00456043 0.0048836 0.0052069 0.00553035 0.00585395 0.00617772 0.00650164 0.00682573 0.00714998 0.00747441
0.00779901 0.00812377 0.0084487 0.0087738 0.00909905 0.00942448 0.00975007 0.0100758 0.0104018 0.0107279
0.0110542 0.0113806 0.0117072 0.012034 0.012361 0.0126882 0.0130156 0.0133432 0.0136709 0.0139989
0.0143271 0.0146555 0.0149841 0.0153128 0.0156418 0.015971 0.0163004 0.01663 0.0169597 0.0172897
0.0176199 0.0179503 0.0182809 0.0186117 0.0189428 0.019274 0.0196056 0.0199373 0.0202693 0.0206016
0.0209342 0.021267 0.0216001 0.0219336 0.0222674 0.0226015 0.022936 0.0232707 0.0236059 0.0239413
0.0242772 0.0246134 0.0249501 0.0252872 0.0256249 0.025963 0.0263016 0.0266406 0.0269802 0.0273204
0.0276611 0.0280026 0.0283447 0.0286876 0.0290315 0.029376 0.0297213 0.0300674 0.0304144 0.0307623
0.0311111 0.0314611 0.0318125 0.0321656 0.0325202 0.0328761 0.0332334 0.0335923 0.033953 0.0343154
0.0346795 0.0350464 0.0354164 0.0357902 0.0361668 0.0365456 0.0369288 0.0373138 0.0377021 0.0380935
0.0384881 0.0388917 0.0390075 0.0391236 0.03924 0.0393566 0.0394425 0.0395382 0.0396341 0.0397303
0.0398266 0.0399239 0.0401352 0.0403477 0.0405614 0.0407763 0.0409997 0.0412195 0.0414395 0.0416597
0.0418804 0.0421117 0.0422721 0.0424446 0.0426197 0.042787 0.0429185 0.0429922 0.0430658 0.0431394
0.043213 0.0432883 0.0435316 0.0438048 0.0441427 0.0445433 0.0448798 0.0450931 0.0452816 0.0454782
0.0456834 0.0458538 0.0460959 0.0463534 0.0466281 0.0469392 0.0472785 0.0479638 0.0483428 0.0487233
0.0491113 0.0502403 0.0504749 0.0507245 0.0509906 0.051275 0.0515967 0.0524446 0.0529386 0.0535048
0.0541678 0.0573742 0 5.53591e-06 1.10719e-05 1.66078e-05 2.21439e-05 2.76688e-05 3.24289e-05 3.7189e-05
4.19491e-05 4.67092e-05 5.14694e-05 0.000373164 0.000694978 0.00101691 0.00133897 0.00166114 0.00198344 0.00230588
0.00262846 0.00295119 0.00327406 0.00359708 0.00392022 0.0042435 0.00456691 0.00489044 0.00521411 0.00553793
0.00586189 0.006186 0.00651026 0.00683466 0.00715923 0.00748396 0.00780884 0.00813389 0.0084591 0.00878447
0.00911 0.0094357 0.00976156 0.0100876 0.0104138 0.0107401 0.0110667 0.0113934 0.0117202 0.0120473
0.0123746 0.012702 0.0130296 0.0133575 0.0136855 0.0140137 0.0143422 0.0146708 0.0149997 0.0153287
0.015658 0.0159875 0.0163172 0.0166471 0.0169772 0.0173075 0.0176381 0.0179688 0.0182998 0.0186311
0.0189626 0.0192943 0.0196263 0.0199586 0.0202911 0.020624 0.0209572 0.0212907 0.0216245 0.0219587
0.0222933 0.0226282 0.0229636 0.0232993 0.0236354 0.023972 0.0243091 0.0246466 0.0249846 0.0253232
0.0256625 0.0260023 0.0263427 0.0266837 0.0270255 0.0273681 0.0277115 0.0280557 0.0284008 0.0287471
0.0290944 0.0294428 0.0297924 0.0301432 0.0304955 0.0308494 0.0312048 0.031562 0.0318385 0.0321165
0.0323958 0.0326766 0.032777 0.0328981 0.0330194 0.033141 0.0332629 0.0333852 0.0337578 0.0341343
0.0345147 0.0348992 0.0352893 0.0356848 0.0360859 0.0364938 0.0369086 0.0373366 0.0375552 0.0377757
0.0379982 0.038223 0.0384547 0.0386879 0.0389256 0.0391668 0.0394105 0.0396679 0.0397396 0.0398117
0.0398841 0.039957 0.0400126 0.0401967 0.0403826 0.0405709 0.0407612 0.0409692 0.0412396 0.0415113
0.0417842 0.0420596 0.0423964 0.0425126 0.0426232 0.0427383 0.0428584 0.0429683 0.0434256 0.043938
0.0445527 0.0453024 0.0461897 0.0464686 0.0467606 0.047065 0.0473799 0.0477326 0.0483946 0.0487973
0.0491565 0.0495568 0.0517602 0 5.16534e-06 1.03307e-05 1.54961e-05 2.06615e-05 2.58208e-05 3.09562e-05
3.60915e-05 4.12269e-05 4.63623e-05 5.14977e-05 0.000373367 0.000695356 0.00101747 0.0013397 0.00166205 0.00198453
0.00230715 0.00262991 0.00295282 0.00327587 0.00359907 0.00392239 0.00424585 0.00456943 0.00489315 0.00521701
0.00554101 0.00586516 0.00618946 0.0065139 0.0068385 0.00716325 0.00748816 0.00781324 0.00813847 0.00846387
0.00878943 0.00911515 0.00944103 0.00976708 0.0100933 0.0104197 0.0107462 0.011073 0.0113999 0.0117269
0.0120542 0.0123817 0.0127093 0.0130372 0.0133652 0.0136935 0.014022 0.0143507 0.0146796 0.0150087
0.015338 0.0156675 0.0159973 0.0163273 0.0166575 0.016988 0.0173186 0.0176496 0.0179807 0.0183121
0.0186438 0.0189757 0.0193079 0.0196404 0.0199732 0.0203064 0.0206399 0.0209737 0.0213079 0.0216424
0.0219774 0.0223128 0.0226486 0.0229848 0.0233215 0.0236588 0.0239966 0.0243349 0.0246738 0.0250133
0.0253534 0.0256942 0.0260358 0.0263782 0.0267213 0.0270655 0.0274107 0.027757 0.0281043 0.0284527
0.0288024 0.0291535 0.0295061 0.0298604 0.0302163 0.0305747 0.0309353 0.0312984 0.031664 0.0320319
0.032403 0.0327778 0.0331565 0.0335399 0.0339274 0.0343225 0.0347254 0.0351365 0.0355577 0.0357726
0.0359903 0.0362108 0.0364343 0.0366626 0.0368373 0.037015 0.0371956 0.037379 0.0374598 0.0375437
0.0376282 0.0377133 0.037799 0.0378862 0.0381465 0.0384151 0.0386924 0.0389785 0.0392906 0.0396088
0.0399411 0.0402868 0.0406553 0.0410995 0.0413258 0.0415587 0.041819 0.0421118 0.0423424 0.0427365
0.043192 0.0437079 0.0442639 0.0463743 0 5.16205e-06 1.03241e-05 1.54862e-05 2.06483e-05 2.58059e-05
3.09465e-05 3.60872e-05 4.12279e-05 4.63686e-05 5.15093e-05 0.000373451 0.000695508 0.00101768 0.00133999 0.00166244
0.00198503 0.00230776 0.00263065 0.00295367 0.00327683 0.00360014 0.00392357 0.00424713 0.00457081 0.00489462
0.00521856 0.00554264 0.00586687 0.00619125 0.00651577 0.00684044 0.00716528 0.00749028 0.00781544 0.00814076
0.00846625 0.0087919 0.00911771 0.00944369 0.00976984 0.0100962 0.0104227 0.0107493 0.0110762 0.0114032
0.0117305 0.0120579 0.0123855 0.0127133 0.0130413 0.0133696 0.013698 0.0140267 0.0143556 0.0146847
0.015014 0.0153436 0.0156733 0.0160033 0.0163336 0.0166641 0.0169948 0.0173258 0.017657 0.0179885
0.0183202 0.0186522 0.0189846 0.0193172 0.0196501 0.0199833 0.0203169 0.0206509 0.0209853 0.0213201
0.0216552 0.0219908 0.0223268 0.0226633 0.0230003 0.0233378 0.0236759 0.0240147 0.024354 0.0246939
0.0250345 0.0253758 0.025718 0.026061 0.0264049 0.0267497 0.0270957 0.0274429 0.0277913 0.0281409
0.0284918 0.0288445 0.0291988 0.029555 0.029913 0.0302734 0.0306368 0.0310032 0.0313724 0.0317446
0.0321211 0.0325024 0.0328887 0.0332801 0.0336773 0.0340839 0.0345015 0.0349307 0.0353743 0.0358327
0.0360702 0.0363132 0.0365621 0.0368172 0.0370791 0.0373484 0.0376294 0.0379232 0.0382314 0.0385557
0.0388967 0.0392881 0.0397586 0.0402889 0.0408556 0.041204 0.0415937 0.042055 0.0425783 0.0442174
0 5.16687e-06 1.03338e-05 1.55007e-05 2.06676e-05 2.58307e-05 3.09665e-05 3.61024e-05 4.12383e-05 4.63742e-05
5.15102e-05 0.000373457 0.00069552 0.00101771 0.00134002 0.00166246 0.00198502 0.00230772 0.00263055 0.00295352
0.00327662 0.00359986 0.00392323 0.00424674 0.00457038 0.00489416 0.00521808 0.00554214 0.00586636 0.00619074
0.00651526 0.00683994 0.00716479 0.0074898 0.00781498 0.00814032 0.00846583 0.00879151 0.00911737 0.0094434
0.0097696 0.010096 0.0104225 0.0107493 0.0110762 0.0114033 0.0117306 0.0120581 0.0123859 0.0127138
0.0130419 0.0133703 0.0136988 0.0140276 0.0143566 0.0146859 0.0150153 0.015345 0.015675 0.0160051
0.0163356 0.0166662 0.0169971 0.0173283 0.0176597 0.0179914 0.0183233 0.0186556 0.0189881 0.019321
0.0196542 0.0199876 0.0203215 0.0206558 0.0209905 0.0213255 0.021661 0.0219969 0.0223333 0.0226703
0.0230077 0.0233456 0.0236841 0.0240233 0.0243631 0.0247035 0.0250446 0.0253865 0.0257294 0.0260731
0.0264176 0.0267631 0.0271098 0.0274578 0.0278069 0.0281574 0.0285093 0.028863 0.0292186 0.0295761
0.0299355 0.0302974 0.0306622 0.0310301 0.031401 0.0317751 0.0321543 0.0325388 0.0329288 0.0333245
0.033726 0.034138 0.0345615 0.0349987 0.0354488 0.0359125 0.0361568 0.0364071 0.0366643 0.0369295
0.0372031 0.037493 0.0377971 0.0381165 0.0384529 0.0388087 0.0392409 0.0397493 0.0403969 0.0412848
0.0428137 0 5.24281e-06 1.04857e-05 1.57285e-05 2.09714e-05 2.62128e-05 3.1273e-05 3.63332e-05 4.13935e-05
4.64537e-05 5.1514e-05 0.000373484 0.000695571 0.00101779 0.00134015 0.00166264 0.00198527 0.00230804 0.00263094
0.00295399 0.00327718 0.00360051 0.00392397 0.00424755 0.00457126 0.0048951 0.00521907 0.00554319 0.00586745
0.00619187 0.00651644 0.00684116 0.00716604 0.0074911 0.00781632 0.0081417 0.00846726 0.00879298 0.00911888
0.00944495 0.00977119 0.0100976 0.0104242 0.010751 0.011078 0.0114051 0.0117325 0.01206 0.0123878
0.0127158 0.013044 0.0133724 0.013701 0.0140298 0.0143589 0.0146882 0.0150178 0.0153475 0.0156775
0.0160078 0.0163382 0.016669 0.0169999 0.0173312 0.0176626 0.0179944 0.0183264 0.0186587 0.0189913
0.0193242 0.0196575 0.019991 0.0203249 0.0206593 0.020994 0.0213291 0.0216646 0.0220005 0.022337
0.0226739 0.0230113 0.0233491 0.0236876 0.0240267 0.0243664 0.0247067 0.0250477 0.0253894 0.0257319
0.0260753 0.0264195 0.0267646 0.0271108 0.0274582 0.0278066 0.0281563 0.0285072 0.0288597 0.0292138
0.0295696 0.0299271 0.0302867 0.0306489 0.0310137 0.0313811 0.0317513 0.0321247 0.0325025 0.0328846
0.0332712 0.0336626 0.0340596 0.0344664 0.0348819 0.0353065 0.0357416 0.0359652 0.0361929 0.0364249
0.0366614 0.0369039 0.0369073 0.0369106 0.036914 0.0369174 0.0369207 0.0371659 0.0374182 0.0376781
0.0379459 0.0382289 0.0385233 0.0388295 0.0391495 0.0394839 0.0398698 0.0402845 0.0407784 0.0414206
0.0422798 0.0439366 0 5.35062e-06 1.07013e-05 1.60519e-05 2.14026e-05 2.67525e-05 3.17063e-05 3.66602e-05
4.1614e-05 4.65679e-05 5.15218e-05 0.000373543 0.000695676 0.00101792 0.00134029 0.00166278 0.00198539 0.00230814
0.00263101 0.00295402 0.00327717 0.00360045 0.00392387 0.00424741 0.00457109 0.0048949 0.00521885 0.00554295
0.0058672 0.00619161 0.00651616 0.00684087 0.00716575 0.00749079 0.00781599 0.00814137 0.0084669 0.00879262
0.0091185 0.00944455 0.00977078 0.0100972 0.0104238 0.0107505 0.0110775 0.0114046 0.011732 0.0120595
0.0123872 0.0127152 0.0130434 0.0133717 0.0137003 0.0140292 0.0143582 0.0146875 0.015017 0.0153467
0.0156767 0.0160069 0.0163374 0.016668 0.016999 0.0173301 0.0176616 0.0179933 0.0183252 0.0186574
0.0189899 0.0193227 0.0196558 0.0199892 0.020323 0.0206572 0.0209917 0.0213266 0.0216618 0.0219975
0.0223336 0.0226702 0.0230072 0.0233447 0.0236827 0.0240213 0.0243605 0.0247001 0.0250403 0.0253812
0.0257228 0.0260651 0.0264081 0.0267519 0.0270968 0.0274426 0.0277894 0.0281371 0.0284857 0.0288356
0.0291868 0.0295392 0.029893 0.0302485 0.0306062 0.030966 0.0313276 0.0316911 0.032057 0.0324256
0.0327969 0.0331709 0.0335486 0.0339314 0.0343203 0.0347153 0.035116 0.0355229 0.0357303 0.0359395
0.0361508 0.0363642 0.0365807 0.0368004 0.0370227 0.0372474 0.0374748 0.0377079 0.0379436 0.0381843
0.0384292 0.0386773 0.0389348 0.0390811 0.0392292 0.0393792 0.039531 0.0396035 0.0397387 0.0398752
0.040013 0.0401522 0.0402996 0.0406117 0.0409301 0.0412617 0.0416201 0.042042 0.0422523 0.0424563
0.0426753 0.0429109 0.0431254 0.0436199 0.0441516 0.0447446 0.0454777 0.0477562 0 5.5435e-06
1.1087e-05 1.66306e-05 2.21742e-05 2.77176e-05 3.24781e-05 3.72387e-05 4.19992e-05 4.67598e-05 5.15204e-05 0.000373531
0.000695654 0.00101789 0.00134024 0.00166269 0.00198529 0.00230802 0.00263088 0.00295388 0.00327701 0.00360027
0.00392366 0.00424719 0.00457084 0.00489463 0.00521854 0.0055426 0.00586681 0.00619118 0.0065157 0.00684037
0.0071652 0.0074902 0.00781537 0.00814071 0.00846621 0.00879188 0.00911772 0.00944373 0.00976991 0.0100963
0.0104228 0.0107495 0.0110764 0.0114035 0.0117308 0.0120583 0.012386 0.0127139 0.013042 0.0133703
0.0136988 0.0140276 0.0143566 0.0146858 0.0150152 0.0153449 0.0156748 0.0160049 0.0163352 0.0166658
0.0169966 0.0173276 0.0176589 0.0179904 0.0183222 0.0186542 0.0189865 0.0193192 0.019652 0.0199852
0.0203187 0.0206526 0.0209868 0.0213214 0.0216563 0.0219915 0.0223272 0.0226633 0.0229998 0.0233367
0.023674 0.0240119 0.0243503 0.0246891 0.0250284 0.0253682 0.0257086 0.0260496 0.0263913 0.0267336
0.0270766 0.0274205 0.0277651 0.0281105 0.0284567 0.0288037 0.0291516 0.0295006 0.0298507 0.0302018
0.0305544 0.0309084 0.0312637 0.0316204 0.0319785 0.0323381 0.0326993 0.0330626 0.0334282 0.0337963
0.0341674 0.0345415 0.0349186 0.0352988 0.0356821 0.0360683 0.0364574 0.036851 0.0372517 0.0373062
0.0373607 0.0374153 0.03747 0.0375174 0.0376698 0.0378229 0.0379766 0.038131 0.038287 0.0384995
0.0387133 0.0389286 0.0391454 0.0393669 0.0395885 0.0398122 0.0400377 0.040265 0.0404999 0.0407273
0.0409557 0.041185 0.0414151 0.0416559 0.0417488 0.041845 0.0419412 0.0420357 0.0421113 0.0422563
0.0424017 0.0425473 0.0426932 0.0428474 0.0430986 0.0433869 0.043744 0.0441322 0.0444656 0.0446476
0.0448201 0.0450015 0.0451925 0.0453563 0.0456141 0.0458873 0.0462068 0.0466099 0.046965 0.0475641
0.0480057 0.0484662 0.0489383 0.0501663 0.0503825 0.0506099 0.0508497 0.0511023 0.0513375 0.0520009
0.0522773 0.052596 0.0529723 0.0550386 0 5.92635e-06 1.18527e-05 1.77791e-05 2.37056e-05 2.96319e-05
3.40051e-05 3.83784e-05 4.27517e-05 4.7125e-05 5.14983e-05 0.000373371 0.000695356 0.00101745 0.00133966 0.00166199
0.00198444 0.00230702 0.00262974 0.00295259 0.00327558 0.0035987 0.00392195 0.00424534 0.00456885 0.0048925
0.00521628 0.00554021 0.00586429 0.00618853 0.00651292 0.00683746 0.00716218 0.00748706 0.0078121 0.00813732
0.0084627 0.00878825 0.00911397 0.00943987 0.00976594 0.0100922 0.0104186 0.0107452 0.011072 0.011399
0.0117262 0.0120535 0.0123811 0.0127089 0.0130369 0.0133651 0.0136935 0.0140222 0.014351 0.0146801
0.0150093 0.0153388 0.0156685 0.0159985 0.0163286 0.0166589 0.0169895 0.0173204 0.0176514 0.0179827
0.0183143 0.0186461 0.0189782 0.0193105 0.0196432 0.0199761 0.0203093 0.0206428 0.0209767 0.0213109
0.0216454 0.0219802 0.0223155 0.0226511 0.022987 0.0233233 0.02366 0.0239972 0.0243347 0.0246727
0.025011 0.0253499 0.0256893 0.0260291 0.0263695 0.0267104 0.0270518 0.0273939 0.0277366 0.0280799
0.0284238 0.0287684 0.0291138 0.0294598 0.0298067 0.0300721 0.0303379 0.0306043 0.0308712 0.0310048
0.0311145 0.0312243 0.0313342 0.0314442 0.0315543 0.0319064 0.0322595 0.0326138 0.0329692 0.0333258
0.0336836 0.0340429 0.0344036 0.0347657 0.0351296 0.0354951 0.035862 0.0362307 0.0366011 0.0369742
0.037349 0.0377261 0.0381052 0.0384864 0.0388721 0.0392568 0.039645 0.0400363 0.0404293 0.0408292
0.0410263 0.0412236 0.0414211 0.0416188 0.0418185 0.0419453 0.0420722 0.0421991 0.0423258 0.0424222
0.0425014 0.0425806 0.0426599 0.0427391 0.0428187 0.0430206 0.0432223 0.0434238 0.043625 0.043831
0.0440363 0.0442405 0.0444438 0.0446463 0.0448513 0.0449502 0.045049 0.0451479 0.0452466 0.0453465
0.0454436 0.0455404 0.045637 0.0457331 0.0458293 0.0458564 0.0458835 0.0459105 0.0459375 0.0459641
0.0460293 0.0460943 0.0461591 0.0462237 0.0462879 0.0463332 0.0463783 0.0464231 0.0464676 0.0465107
0.0465534 0.0465957 0.0466374 0.0466784 0.0467182 0.0467567 0.0467946 0.046832 0.0468688 0.0469057
0.0469279 0.0469498 0.0469717 0.0469935 0.0470104 0.0470287 0.0470469 0.0470652 0.0470834 0.0471021
0.0471428 0.0471837 0.0472251 0.0472668 0.0473106 0.0473382 0.0473658 0.0473934 0.0474211 0.0474477
0.0474654 0.0474832 0.0475011 0.047519 0.0475372 0.0475827 0.0476283 0.047674 0.04772 0.0477665
0.0477806 0.0477948 0.047809 0.0478233 0.0478357 0.0478424 0.0478491 0.0478558 0.0478625 0.0478692
0.0478948 0.0479204 0.047946 0.0479717 0.0479973 0.0480429 0.0480887 0.0481347 0.0481807 0.0482262
0.0482502 0.0482743 0.0482983 0.0483225 0.0483472 0.0483689 0.0483906 0.0484124 0.0484341 0.0484557
0.0485009 0.048546 0.0485912 0.0486364 0.0486813 0.0487198 0.0487584 0.048797 0.0488357 0.0488755
0.0488827 0.0488899 0.048897 0.0489042 0.0489113 0.0489575 0.0490037 0.0490501 0.0490967 0.0491426
0.0491882 0.0492339 0.0492796 0.0493254 0.0493708 0.0493852 0.0493996 0.049414 0.0494284 0.049443
0.0494752 0.0495074 0.0495396 0.0495718 0.0496037 0.0496503 0.049697 0.0497437 0.0497905 0.0498366
0.0498743 0.049912 0.0499497 0.0499875 0.0500275 0.0500357 0.0500438 0.050052 0.0500601 0.0500683
0.0501146 0.050161 0.0502076 0.0502543 0.0503008 0.0503469 0.0503932 0.0504395 0.0504859 0.0505321
0.0505722 0.0506124 0.0506525 0.0506928 0.0507354 0.0507414 0.0507474 0.0507535 0.0507595 0.0507656