# vtk DataFile Version 2.0
tracks
ASCII
DATASET POLYDATA
POINTS 15085 float
-1.001 1e-07 0.0011 -1.0008 9.73193e-08 0.00110001 -1.0006 9.46385e-08 0.00110002 -1.0004 9.19577e-08
0.00110002 -1.0002 8.92768e-08 0.00110003 -1 8.65958e-08 0.00110004 -0.998708 6.92767e-08 0.00110009
-0.997416 5.29689e-08 0.00110015 -0.996124 3.66586e-08 0.0011002 -0.994832 2.03457e-08 0.00110025 -0.993221
1.37622e-28 0.00110031 -0.988327 -6.18191e-08 0.0011005 -0.983433 -1.23682e-07 0.00110069 -0.978538 -1.8559e-07
0.00110089 -0.973644 -2.47542e-07 0.00110108 -0.96875 -3.09539e-07 0.00110127 -0.9625 -3.88552e-07 0.00110152
-0.95625 -4.67815e-07 0.00110176 -0.95 -5.47144e-07 0.00110201 -0.94375 -6.26538e-07 0.00110225 -0.9375
-7.05997e-07 0.0011025 -0.93125 -7.7164e-07 0.00110272 -0.925 -8.24131e-07 0.00110292 -0.91875 -8.76663e-07
0.00110313 -0.9125 -9.29237e-07 0.00110333 -0.90625 -9.81852e-07 0.00110353 -0.9 -1.03391e-06 0.00110373
-0.89375 -1.08661e-06 0.00110394 -0.8875 -1.13935e-06 0.00110414 -0.88125 -1.19213e-06 0.00110434 -0.875
-1.24496e-06 0.00110455 -0.86875 -1.28972e-06 0.00110473 -0.8625 -1.33391e-06 0.0011049 -0.85625 -1.37812e-06
0.00110507 -0.85 -1.42237e-06 0.00110524 -0.84375 -1.46666e-06 0.0011054 -0.8375 -1.51005e-06 0.00110557
-0.83125 -1.55445e-06 0.00110574 -0.825 -1.59889e-06 0.00110591 -0.81875 -1.64336e-06 0.00110608 -0.8125
-1.68787e-06 0.00110625 -0.80625 -1.73387e-06 0.0011064 -0.8 -1.78034e-06 0.00110654 -0.79375 -1.82685e-06
0.00110667 -0.7875 -1.8734e-06 0.0011068 -0.78125 -1.91998e-06 0.00110693 -0.775 -1.9653e-06 0.00110707
-0.76875 -2.01196e-06 0.0011072 -0.7625 -2.05866e-06 0.00110733 -0.75625 -2.1054e-06 0.00110747 -0.75
-2.15217e-06 0.0011076 -0.74375 -2.19626e-06 0.0011077 -0.7375 -2.23457e-06 0.00110777 -0.73125 -2.27292e-06
0.00110784 -0.725 -2.31129e-06 0.00110792 -0.71875 -2.34969e-06 0.00110799 -0.7125 -2.3865e-06 0.00110806
-0.70625 -2.42501e-06 0.00110813 -0.7 -2.46354e-06 0.0011082 -0.69375 -2.5021e-06 0.00110827 -0.6875
-2.5407e-06 0.00110834 -0.68125 -2.57089e-06 0.00110838 -0.675 -2.59749e-06 0.00110838 -0.66875 -2.62411e-06
0.00110838 -0.6625 -2.65075e-06 0.00110838 -0.65625 -2.67741e-06 0.00110838 -0.65 -2.702e-06 0.00110837
-0.64375 -2.72896e-06 0.00110837 -0.6375 -2.75595e-06 0.00110837 -0.63125 -2.78295e-06 0.00110837 -0.625
-2.80998e-06 0.00110837 -0.61875 -2.8404e-06 0.00110832 -0.6125 -2.87676e-06 0.00110818 -0.60625 -2.91315e-06
0.00110805 -0.6 -2.94957e-06 0.00110792 -0.59375 -2.98603e-06 0.00110779 -0.5875 -3.01948e-06 0.00110766
-0.58125 -3.05666e-06 0.00110753 -0.575 -3.09389e-06 0.0011074 -0.56875 -3.13116e-06 0.00110726 -0.5625
-3.16848e-06 0.00110713 -0.55625 -3.20599e-06 0.0011069 -0.55 -3.2442e-06 0.00110652 -0.54375 -3.28246e-06
0.00110615 -0.5375 -3.32076e-06 0.00110577 -0.53125 -3.3591e-06 0.0011054 -0.525 -3.39249e-06 0.00110502
-0.51875 -3.43191e-06 0.00110465 -0.5125 -3.4714e-06 0.00110427 -0.50625 -3.51095e-06 0.0011039 -0.5
-3.55055e-06 0.00110352 -0.49375 -3.59496e-06 0.00110296 -0.4875 -3.64284e-06 0.00110213 -0.48125 -3.6908e-06
0.00110131 -0.475 -3.73884e-06 0.00110048 -0.46875 -3.78695e-06 0.00109966 -0.4625 -3.82693e-06 0.00109884
-0.45625 -3.8772e-06 0.00109801 -0.45 -3.92759e-06 0.00109719 -0.44375 -3.97808e-06 0.00109637 -0.4375
-4.02868e-06 0.00109555 -0.431249 -4.08046e-06 0.00109435 -0.424999 -4.13949e-06 0.00109257 -0.418749 -4.19868e-06
0.0010908 -0.412499 -4.25802e-06 0.00108902 -0.406249 -4.31752e-06 0.00108725 -0.399998 -4.36228e-06 0.00108549
-0.393747 -4.42639e-06 0.00108372 -0.387496 -4.49084e-06 0.00108196 -0.381246 -4.55561e-06 0.00108019 -0.374995
-4.62071e-06 0.00107844 -0.368743 -4.70151e-06 0.00107579 -0.36249 -4.80453e-06 0.0010718 -0.356238 -4.90831e-06
0.00106782 -0.349986 -5.01285e-06 0.00106387 -0.343734 -5.11815e-06 0.00105992 -0.337478 -5.1917e-06 0.00105599
-0.331222 -5.31018e-06 0.00105206 -0.324967 -5.43066e-06 0.00104815 -0.318711 -5.55317e-06 0.00104425 -0.312455
-5.67772e-06 0.00104037 -0.306193 -5.82775e-06 0.00103458 -0.299931 -6.0333e-06 0.0010254 -0.293669 -6.24341e-06
0.00101631 -0.287406 -6.45813e-06 0.00100731 -0.281144 -6.67751e-06 0.000998379 -0.274873 -6.79789e-06 0.0009895
-0.268602 -7.06851e-06 0.000980678 -0.262332 -7.34919e-06 0.000971934 -0.256061 -7.64006e-06 0.000963266 -0.24979
-7.94129e-06 0.000954674 -0.243518 -8.40369e-06 0.000940723 -0.237246 -9.15114e-06 0.000916193 -0.230975 -9.918e-06
0.000892323 -0.224703 -1.0705e-05 0.000869095 -0.218432 -1.15127e-05 0.000846492 -0.215291 -1.19916e-05 0.00083542
-0.212151 -1.26502e-05 0.000822086 -0.20901 -1.33377e-05 0.000808959 -0.20587 -1.40547e-05 0.000796034 -0.202729
-1.4802e-05 0.000783309 -0.199591 -1.49702e-05 0.000770923 -0.196452 -1.57905e-05 0.000758588 -0.193313 -1.6644e-05
0.000746442 -0.190174 -1.75314e-05 0.000734482 -0.187035 -1.84535e-05 0.000722705 -0.183909 -1.92511e-05 0.000708616
-0.180783 -2.02151e-05 0.000691713 -0.177657 -2.11865e-05 0.000675218 -0.17453 -2.21655e-05 0.00065912 -0.171404
-2.31523e-05 0.000643409 -0.168296 -2.31299e-05 0.000628172 -0.165187 -2.42321e-05 0.000613072 -0.162079 -2.52606e-05
0.000598348 -0.15897 -2.62129e-05 0.000583991 -0.155861 -2.70866e-05 0.000569993 -0.152748 -2.77868e-05 0.000553108
-0.149635 -2.85366e-05 0.000534056 -0.146521 -2.92352e-05 0.000515664 -0.143408 -2.98804e-05 0.000497911 -0.140295
-3.04702e-05 0.000480771 -0.137177 -3.03438e-05 0.000464167 -0.134059 -3.10093e-05 0.000448084 -0.130941 -3.17185e-05
0.000432558 -0.127823 -3.24735e-05 0.000417569 -0.124705 -3.32761e-05 0.000403098 -0.121536 -3.40936e-05 0.00038825
-0.118368 -3.58237e-05 0.000386733 -0.1152 -3.80724e-05 0.000384761 -0.112031 -4.08713e-05 0.000382306 -0.108855
-4.4262e-05 0.000379333 -0.105642 -4.4262e-05 0.000379333 -0.102428 -5.14047e-05 0.00037533 -0.0992149 -6.04138e-05
0.000370281 -0.0960014 -7.1458e-05 0.000364092 -0.0927838 -8.47371e-05 0.000356651 -0.0897416 -8.47371e-05 0.000356651
-0.0866994 -0.000111148 0.00034513 -0.0836574 -0.000147484 0.000329281 -0.0806156 -0.000197739 0.00030736 -0.0773679
-0.000272986 0.000274538 -1.001 1e-07 0.0537316 -1.00095 8e-08 0.0537317 -1.0009 5.99838e-08
0.0537317 -1.00085 3.99515e-08 0.0537318 -1.0008 1.9903e-08 0.0537319 -1.00075 3.08502e-28 0.053732
-1.0006 -5.97693e-08 0.0537322 -1.00045 -1.19682e-07 0.0537325 -1.0003 -1.79738e-07 0.0537327 -1.00015
-2.39938e-07 0.053733 -1 -3.00281e-07 0.0537332 -0.99375 -2.82449e-06 0.0537433 -0.9875 -5.32257e-06
0.0537534 -0.98125 -7.78242e-06 0.0537635 -0.975 -1.0196e-05 0.0537736 -0.96875 -1.25632e-05 0.0537836
-0.9625 -1.48803e-05 0.0537937 -0.95625 -1.71078e-05 0.0538036 -0.95 -1.92429e-05 0.0538132 -0.94375
-2.12854e-05 0.0538226 -0.9375 -2.32407e-05 0.0538318 -0.93125 -2.51118e-05 0.0538409 -0.925 -2.69105e-05
0.0538498 -0.91875 -2.86311e-05 0.0538586 -0.9125 -3.02729e-05 0.0538671 -0.90625 -3.18359e-05 0.0538753
-0.9 -3.33149e-05 0.0538833 -0.89375 -3.47589e-05 0.053891 -0.8875 -3.61632e-05 0.0538985 -0.88125
-3.75277e-05 0.0539058 -0.875 -3.88504e-05 0.0539129 -0.86875 -4.01231e-05 0.0539199 -0.8625 -4.13974e-05
0.0539267 -0.85625 -4.26672e-05 0.0539335 -0.85 -4.39323e-05 0.05394 -0.84375 -4.51928e-05 0.0539463
-0.8375 -4.64438e-05 0.0539524 -0.83125 -4.77034e-05 0.0539582 -0.825 -4.89658e-05 0.0539639 -0.81875
-5.02311e-05 0.0539693 -0.8125 -5.15025e-05 0.0539746 -0.80625 -5.27814e-05 0.0539798 -0.8 -5.40676e-05
0.0539849 -0.79375 -5.53494e-05 0.0539897 -0.7875 -5.66232e-05 0.0539944 -0.78125 -5.78891e-05 0.0539987
-0.775 -5.9142e-05 0.0540028 -0.76875 -6.03806e-05 0.0540067 -0.7625 -6.16011e-05 0.0540102 -0.75625
-6.28034e-05 0.0540134 -0.75 -6.39894e-05 0.0540163 -0.74375 -6.51611e-05 0.0540191 -0.7375 -6.62985e-05
0.0540217 -0.73125 -6.74026e-05 0.054024 -0.725 -6.84746e-05 0.0540259 -0.71875 -6.95145e-05 0.0540275
-0.7125 -7.05239e-05 0.0540288 -0.70625 -7.14991e-05 0.0540297 -0.7 -7.24364e-05 0.0540302 -0.69375
-7.33355e-05 0.0540303 -0.6875 -7.41928e-05 0.0540302 -0.68125 -7.50046e-05 0.0540298 -0.675 -7.57982e-05
0.0540292 -0.66875 -7.65733e-05 0.0540282 -0.6625 -7.73317e-05 0.0540268 -0.65625 -7.80734e-05 0.0540249
-0.65 -7.88016e-05 0.0540226 -0.64375 -7.95485e-05 0.0540197 -0.6375 -8.031e-05 0.0540162 -0.63125
-8.10862e-05 0.0540121 -0.625 -8.18794e-05 0.0540074 -0.61875 -8.27013e-05 0.0540025 -0.6125 -8.35636e-05
0.0539971 -0.60625 -8.4456e-05 0.0539909 -0.6 -8.53759e-05 0.053984 -0.59375 -8.63233e-05 0.0539762
-0.5875 -8.73067e-05 0.0539675 -0.58125 -8.83107e-05 0.0539577 -0.575 -8.93224e-05 0.0539468 -0.56875
-9.03419e-05 0.0539348 -0.5625 -9.13672e-05 0.0539219 -0.55625 -9.24044e-05 0.0539083 -0.55 -9.34608e-05
0.0538938 -0.54375 -9.45225e-05 0.0538781 -0.5375 -9.55911e-05 0.0538608 -0.53125 -9.66665e-05 0.053842
-0.525 -9.77581e-05 0.0538217 -0.51875 -9.88933e-05 0.0537993 -0.5125 -0.000100055 0.0537746 -0.50625
-0.000101244 0.0537478 -0.5 -0.000102461 0.0537193 -0.49375 -0.000103729 0.0536895 -0.4875 -0.000105041
0.053658 -0.48125 -0.000106375 0.053624 -0.475 -0.000107735 0.0535868 -0.46875 -0.00010912 0.0535465
-0.4625 -0.000110564 0.0535029 -0.456249 -0.00011207 0.0534547 -0.449999 -0.000113601 0.0534017 -0.443749
-0.000115156 0.0533439 -0.437499 -0.000116728 0.0532825 -0.431248 -0.000118337 0.0532186 -0.424998 -0.000120059
0.0531508 -0.418747 -0.00012183 0.0530776 -0.412496 -0.000123655 0.052997 -0.406245 -0.000125537 0.0529091
-0.399993 -0.000127536 0.052814 -0.393742 -0.000129729 0.0527074 -0.38749 -0.000132039 0.0525894 -0.381238
-0.000134469 0.0524599 -0.374985 -0.000137012 0.0523222 -0.36873 -0.000139717 0.0521784 -0.362474 -0.000142745
0.0520255 -0.356219 -0.000145931 0.0518608 -0.349965 -0.000149311 0.0516787 -0.343708 -0.000152887 0.0514788
-0.337446 -0.00015686 0.0512614 -0.331184 -0.000161385 0.0510145 -0.324925 -0.000166267 0.0507379 -0.318666
-0.000171512 0.0504312 -0.312397 -0.00017696 0.0501095 -0.306125 -0.00018268 0.0497747 -0.299854 -0.000189436
0.0494157 -0.293584 -0.000196584 0.0490327 -0.287318 -0.000204551 0.0486025 -0.281036 -0.000213436 0.0481205
[...]
POINT_DATA 15085
FIELD attributes 3
age 1 15085 float
0 1.00128e-05 2.00256e-05 3.00385e-05 4.00513e-05 5.00641e-05 0.000114744 0.000179429 0.000244113 0.000308797 0.00038946
0.000634502 0.000879543 0.00112458 0.00136963 0.00161467 0.00192759 0.00224051 0.00255343 0.00286635 0.00317928
0.00349223 0.00380521 0.0041182 0.00443118 0.00474417 0.00505715 0.00537014 0.00568312 0.00599611 0.00630909
0.00662211 0.00693516 0.00724821 0.00756125 0.0078743 0.00818735 0.0085004 0.00881344 0.00912649 0.00943954
0.00975262 0.0100657 0.0103788 0.010692 0.0110051 0.0113182 0.0116313 0.0119444 0.0122575 0.0125706
0.0128838 0.013197 0.0135101 0.0138233 0.0141365 0.0144496 0.0147628 0.015076 0.0153891 0.0157023
0.0160155 0.0163287 0.016642 0.0169552 0.0172685 0.0175817 0.017895 0.0182082 0.0185215 0.0188347
0.019148 0.0194613 0.0197746 0.020088 0.0204013 0.0207146 0.021028 0.0213413 0.0216546 0.021968
0.0222813 0.0225948 0.0229082 0.0232217 0.0235351 0.0238485 0.024162 0.0244754 0.0247889 0.0251023
0.0254158 0.0257294 0.0260429 0.0263565 0.0266701 0.0269836 0.0272972 0.0276108 0.0279243 0.0282379
0.0285516 0.0288653 0.0291791 0.0294929 0.0298066 0.0301204 0.0304342 0.030748 0.0310618 0.0313756
0.0316896 0.0320037 0.0323178 0.0326319 0.032946 0.0332602 0.0335745 0.0338888 0.034203 0.0345173
0.034832 0.0351469 0.0354618 0.0357767 0.0360916 0.0364069 0.0367222 0.0370375 0.0373527 0.037668
0.0379834 0.0383008 0.0386181 0.0389352 0.0392523 0.039411 0.0395698 0.0397286 0.0398874 0.0400462
0.0402047 0.0403634 0.040522 0.0406806 0.0408391 0.040997 0.041155 0.041313 0.041471 0.0416289
0.0417858 0.0419427 0.0420996 0.0422565 0.0424133 0.0425704 0.0427276 0.0428848 0.0430419 0.0431989
0.0433561 0.0435133 0.0436704 0.0438275 0.0439846 0.0441442 0.0443059 0.0444675 0.0446291 0.044791
0.0449551 0.045119 0.0452829 0.0454467 0.0456106 0.0457665 0.0459375 0.0461263 0.046337 0.0465911
0 2.61253e-06 5.22513e-06 7.8378e-06 1.04506e-05 1.30423e-05 2.08195e-05 2.85974e-05 3.63759e-05 4.41551e-05
5.1935e-05 0.000376634 0.000701458 0.00102642 0.00135152 0.00167676 0.00200215 0.00232771 0.00265344 0.00297935
0.00330542 0.00363169 0.00395815 0.0042848 0.00461163 0.00493863 0.00526581 0.00559315 0.00592066 0.00624833
0.00657617 0.0069042 0.00723243 0.00756083 0.00788939 0.00821812 0.00854701 0.00887607 0.00920531 0.00953472
0.00986431 0.0101941 0.0105241 0.0108543 0.0111846 0.0115152 0.0118459 0.0121767 0.0125077 0.0128388
0.01317 0.0135015 0.013833 0.0141648 0.0144967 0.0148287 0.0151608 0.0154932 0.0158257 0.0161585
0.0164914 0.0168246 0.017158 0.0174917 0.0178257 0.0181599 0.0184943 0.018829 0.019164 0.0194993
0.0198348 0.0201706 0.0205067 0.020843 0.0211796 0.0215164 0.0218536 0.022191 0.0225288 0.0228668
0.0232052 0.023544 0.0238831 0.0242227 0.0245626 0.024903 0.0252438 0.0255851 0.0259268 0.0262689
0.0266115 0.0269545 0.027298 0.027642 0.0279864 0.0283314 0.0286769 0.0290231 0.02937 0.0297175
0.0300658 0.0304146 0.0307643 0.0311147 0.0314661 0.0318184 0.0321717 0.032526 0.0328815 0.033238
0.0335956 0.0339543 0.0343141 0.0346749 0.0350371 0.0354008 0.0357662 0.0361333 0.0365023 0.0368731
0.0372459 0.0376202 0.0379961 0.0383737 0.0387536 0.039137 0.0395248 0.0399146 0.0403065 0.0407003
0.0411001 0.0413001 0.0415006 0.0417016 0.0419031 0.0421068 0.0423099 0.0425134 0.0427173 0.0429218
0.0431285 0.0433349 0.0435418 0.0437489 0.0439561 0.0441671 0.04436 0.0445528 0.0447454 0.0449378
0.0450863 0.0451108 0.0451353 0.0451599 0.0451844 0.045209 0.0454159 0.0456234 0.0458312 0.0460393
0.0462492 0.0464518 0.0466546 0.046858 0.0470617 0.0472665 0.0474846 0.0477029 0.0479217 0.0481413
0.0483703 0.0486034 0.0488209 0.0490264 0.0492255 0.0493525 0.0493745 0.0493965 0.0494186 0.0494406
0.0494627 0.0497099 0.0499834 0.0503091 0.0507122 0.0511623 0.0515408 0.0518896 0.0522233 0.0525985
0.0531279 0.0533734 0.0536489 0.0539117 0.0541709 0.056189 0.056189 0.056189 0.056189 0.056189
0.056189 0.0562177 0.0562468 0.0562764 0.0563064 0.0563387 0 2.52556e-06 5.05114e-06 7.57672e-06
1.01023e-05 1.26281e-05 2.05162e-05 2.84044e-05 3.62927e-05 4.41811e-05 5.20696e-05 0.000377519 0.000703063 0.0010287
0.00135444 0.00168027 0.00200619 0.00233225 0.00265845 0.0029848 0.00331129 0.00363793 0.00396473 0.0042917
0.00461882 0.00494611 0.00527357 0.00560118 0.00592893 0.00625682 0.00658486 0.00691305 0.00724138 0.00756985
0.00789848 0.00822724 0.00855615 0.00888522 0.00921445 0.00954384 0.00987338 0.0102031 0.010533 0.010863
0.0111931 0.0115234 0.0118539 0.0121845 0.0125152 0.0128461 0.013177 0.0135081 0.0138394 0.0141708
0.0145023 0.014834 0.0151658 0.0154978 0.0158301 0.0161625 0.0164951 0.0168279 0.017161 0.0174943
0.0178279 0.0181617 0.0184958 0.0188301 0.0191647 0.0194996 0.0198348 0.0201702 0.0205059 0.0208418
0.0211781 0.0215146 0.0218515 0.0221887 0.0225263 0.0228642 0.0232025 0.0235411 0.0238802 0.0242197
0.0245597 0.0249002 0.0252411 0.0255826 0.0259247 0.0262673 0.0266104 0.0269539 0.0272981 0.0276429
0.0279883 0.0283344 0.0286812 0.029029 0.0293778 0.0297275 0.030078 0.0304293 0.0307818 0.0311354
0.03149 0.0318461 0.0322038 0.0325633 0.0329246 0.0332873 0.0336517 0.0340179 0.0343861 0.0347562
0.0351283 0.0355035 0.0358821 0.0362658 0.036653 0.0370433 0.0374394 0.0378378 0.0382409 0.0386485
0.0390604 0.0394855 0.0395342 0.0395829 0.0396317 0.0396805 0.0397232 0.0398918 0.0400611 0.0402311
0.0404019 0.0405771 0.0408019 0.0410282 0.0412557 0.0414843 0.041726 0.0419615 0.0421972 0.042433
0.0426689 0.0429179 0.0429491 0.0429803 0.0430115 0.0430427 0.0430723 0.0432813 0.0434906 0.0437001
0.0439095 0.0441298 0.0443771 0.0446541 0.0449796 0.0452705 0.0455251 0.0455497 0.0455736 0.0455969
0.0456209 0.0456442 0.0459025 0.0461796 0.0465167 0.0469466 0.0473031 0.0476013 0.0478218 0.0480453
0.0482711 0.0484748 0.0487176 0.0489733 0.0492429 0.0495261 0.0498602 0.0504657 0.0508274 0.0511623
0.0515298 0.0520233 0.0528633 0.0532844 0.0537108 0.0541941 0.0554716 0.0557097 0.0559697 0.0562558
0.056573 0.0569546 0.0578436 0.0583329 0.0588925 0.059546 0.0634991 0 2.68494e-06 5.36989e-06
8.05485e-06 1.07398e-05 1.34262e-05 2.11562e-05 2.88863e-05 3.66164e-05 4.43467e-05 5.2077e-05 0.000377573 0.000703153
0.00102882 0.00135456 0.00168039 0.00200632 0.00233237 0.00265857 0.0029849 0.00331137 0.00363797 0.00396473
0.00429165 0.00461873 0.00494596 0.00527335 0.00560088 0.00592856 0.00625638 0.00658435 0.00691247 0.00724073
0.00756915 0.00789771 0.00822643 0.00855529 0.00888431 0.0092135 0.00954284 0.00987235 0.010202 0.0105318
0.0108618 0.0111919 0.0115222 0.0118527 0.0121832 0.012514 0.0128448 0.0131758 0.0135069 0.0138382
0.0141696 0.0145012 0.0148329 0.0151648 0.0154969 0.0158292 0.0161617 0.0164945 0.0168274 0.0171606
0.017494 0.0178278 0.0181618 0.018496 0.0188306 0.0191654 0.0195006 0.019836 0.0201718 0.0205078
0.0208442 0.0211809 0.0215179 0.0218553 0.022193 0.0225312 0.0228698 0.0232089 0.0235483 0.0238883
0.0242288 0.0245699 0.0249115 0.0252536 0.0255965 0.0259399 0.0262841 0.0266289 0.0269744 0.0273207
0.0276679 0.0280159 0.0283648 0.0287147 0.0290659 0.0294183 0.0297719 0.0301268 0.0304831 0.0308412
0.031201 0.0315625 0.0319261 0.0321818 0.0324387 0.032697 0.0329566 0.033065 0.0332082 0.0333518
0.0334958 0.0336402 0.0337851 0.0341657 0.0345509 0.034941 0.035336 0.035738 0.036146 0.0365612
0.0369855 0.0374188 0.0378698 0.0381005 0.0383339 0.03857 0.038809 0.0390588 0.0393095 0.0395651
0.0398245 0.040087 0.0402878 0.040305 0.0403222 0.0403395 0.0403567 0.0403741 0.0406439 0.040918
0.0411964 0.0414788 0.0418017 0.0420893 0.0423778 0.0426665 0.0429549 0.043126 0.0431634 0.0432008
0.0432381 0.0432754 0.0433135 0.0436123 0.0439214 0.0442683 0.0446622 0.0451226 0.045425 0.0457323
0.0460426 0.0463556 0.0467245 0.0474738 0.0479003 0.0482766 0.0487066 0.0499839 0.0502711 0.0505636
0.0508596 0.0511601 0.0514882 0.0522634 0.0526922 0.0530668 0.0534778 0.057702 0 2.69565e-06
5.39131e-06 8.08699e-06 1.07827e-05 1.34788e-05 2.12002e-05 2.89216e-05 3.66432e-05 4.43648e-05 5.20866e-05 0.000377641
0.000703274 0.00102899 0.00135478 0.00168066 0.00200663 0.00233275 0.00265899 0.00298537 0.00331187 0.0036385
0.00396529 0.00429223 0.00461932 0.00494656 0.00527395 0.00560148 0.00592916 0.00625698 0.00658495 0.00691305
0.00724131 0.00756972 0.00789828 0.00822699 0.00855585 0.00888488 0.00921406 0.00954341 0.00987293 0.0102026
0.0105324 0.0108624 0.0111926 0.0115229 0.0118534 0.012184 0.0125147 0.0128456 0.0131766 0.0135078
0.0138392 0.0141707 0.0145024 0.0148342 0.0151662 0.0154984 0.0158309 0.0161635 0.0164964 0.0168296
0.017163 0.0174967 0.0178307 0.0181649 0.0184995 0.0188343 0.0191695 0.019505 0.0198409 0.020177
0.0205136 0.0208505 0.0211877 0.0215254 0.0218634 0.0222018 0.0225407 0.0228801 0.02322 0.0235604
0.0239014 0.0242431 0.0245854 0.0249283 0.0252719 0.0256162 0.0259613 0.0263072 0.026654 0.0270016
0.0273504 0.0277003 0.0280513 0.0284036 0.0287569 0.0291117 0.0294682 0.0298263 0.0301863 0.0305481
0.0309126 0.0312795 0.0316492 0.0320215 0.0323964 0.0327749 0.0331577 0.0335452 0.0339381 0.0343361
0.034743 0.0351595 0.0355858 0.0360237 0.0362475 0.0364747 0.0367054 0.0369398 0.0371808 0.0373295
0.0374809 0.0376347 0.037791 0.0378581 0.037982 0.0381074 0.0382344 0.038363 0.0384962 0.0387814
0.039077 0.0393835 0.0397009 0.0400609 0.0404109 0.0407771 0.0411578 0.0415523 0.0420249 0.0420268
0.0420287 0.0420305 0.0420324 0.0420343 0.0425833 0.0432026 0.0439382 0.044806 0.0456662 0.0462837
0.0469115 0.0475102 0.048283 0.0507287 0 2.70269e-06 5.40539e-06 8.1081e-06 1.08108e-05 1.35141e-05
2.1223e-05 2.89319e-05 3.66409e-05 4.43499e-05 5.20591e-05 0.000377441 0.000702906 0.00102845 0.00135409 0.0016798
0.0020056 0.00233154 0.0026576 0.0029838 0.00331013 0.00363661 0.00396324 0.00429003 0.00461699 0.0049441
0.00527138 0.00559881 0.00592639 0.00625412 0.00658201 0.00691004 0.00723823 0.00756659 0.0078951 0.00822376
0.00855258 0.00888157 0.00921073 0.00954006 0.00986957 0.0101992 0.0105291 0.0108591 0.0111893 0.0115196
0.0118501 0.0121807 0.0125115 0.0128424 0.0131735 0.0135047 0.0138361 0.0141677 0.0144995 0.0148314
0.0151636 0.0154959 0.0158285 0.0161613 0.0164944 0.0168277 0.0171613 0.0174952 0.0178294 0.0181639
0.0184987 0.0188339 0.0191693 0.0195052 0.0198413 0.0201778 0.0205147 0.0208521 0.0211898 0.0215279
0.0218663 0.0222054 0.0225449 0.0228849 0.0232255 0.0235667 0.0239085 0.0242511 0.0245944 0.0249383
0.025283 0.0256286 0.025975 0.0263224 0.0266707 0.02702 0.0273706 0.0277226 0.0280759 0.0284306
0.0287867 0.0291448 0.0295047 0.0298667 0.0302307 0.0305975 0.0309674 0.0313405 0.0317167 0.0320961
0.0324802 0.03287 0.033266 0.0336682 0.0340777 0.0344984 0.0349336 0.0353844 0.0358542 0.0363444
0.0366004 0.0368639 0.0371354 0.0374156 0.0377057 0.0380065 0.0383248 0.038662 0.0390194 0.0394009
0.0398034 0.0402674 0.0408256 0.0414593 0.0421652 0.042631 0.0431474 0.0437083 0.0442611 0.0468443
0 2.69025e-06 5.38052e-06 8.07079e-06 1.07611e-05 1.34521e-05 2.11695e-05 2.8887e-05 3.66046e-05 4.43223e-05
5.204e-05 0.000377303 0.000702656 0.00102811 0.00135367 0.00167932 0.00200508 0.00233099 0.00265703 0.00298321
0.00330954 0.00363601 0.00396263 0.00428941 0.00461634 0.00494343 0.00527067 0.00559806 0.00592561 0.00625331
0.00658116 0.00690916 0.00723733 0.00756566 0.00789415 0.00822281 0.00855162 0.00888061 0.00920977 0.00953911
0.00986861 0.0101983 0.0105281 0.0108582 0.0111883 0.0115187 0.0118492 0.0121799 0.0125107 0.0128417
0.0131729 0.0135042 0.0138357 0.0141674 0.0144993 0.0148313 0.0151635 0.015496 0.0158287 0.0161617
0.0164949 0.0168284 0.0171621 0.0174962 0.0178306 0.0181653 0.0185004 0.0188357 0.0191715 0.0195075
0.019844 0.0201808 0.020518 0.0208556 0.0211936 0.021532 0.0218709 0.0222103 0.0225502 0.0228906
0.0232316 0.0235732 0.0239154 0.0242584 0.0246021 0.0249466 0.0252918 0.0256379 0.025985 0.026333
0.026682 0.027032 0.0273833 0.0277361 0.0280902 0.0284456 0.0288028 0.029162 0.0295232 0.0298866
0.0302521 0.0306203 0.0309917 0.0313664 0.0317445 0.0321259 0.0325127 0.0329061 0.0333064 0.0337138
0.0341285 0.0345554 0.034997 0.0354576 0.0359358 0.0364331 0.0366975 0.0369702 0.0372523 0.0375455
0.0378507 0.0381767 0.0385208 0.0388843 0.0392692 0.0396824 0.0401946 0.0407893 0.0415373 0.0425251
0.0442793 0 2.59541e-06 5.19083e-06 7.78625e-06 1.03817e-05 1.29773e-05 2.07876e-05 2.8598e-05 3.64085e-05
4.42191e-05 5.20298e-05 0.000377229 0.000702513 0.00102788 0.00135334 0.00167889 0.00200453 0.0023303 0.00265621
0.00298226 0.00330844 0.00363477 0.00396126 0.00428791 0.00461473 0.00494172 0.00526888 0.00559619 0.00592366
0.00625129 0.00657907 0.00690701 0.00723511 0.00756338 0.00789181 0.0082204 0.00854916 0.0088781 0.00920722
0.00953652 0.00986599 0.0101956 0.0105255 0.0108555 0.0111856 0.011516 0.0118465 0.0121771 0.0125079
0.0128389 0.01317 0.0135013 0.0138328 0.0141645 0.0144963 0.0148283 0.0151606 0.015493 0.0158258
0.0161587 0.016492 0.0168254 0.0171592 0.0174933 0.0178277 0.0181624 0.0184975 0.0188328 0.0191686
0.0195046 0.019841 0.0201778 0.020515 0.0208525 0.0211905 0.0215288 0.0218676 0.0222069 0.0225467
0.022887 0.0232278 0.0235692 0.0239113 0.024254 0.0245975 0.0249416 0.0252864 0.0256321 0.0259787
0.0263262 0.0266745 0.0270238 0.0273744 0.0277262 0.0280792 0.0284335 0.0287892 0.0291467 0.029506
0.0298672 0.0302302 0.0305955 0.0309637 0.0313347 0.0317085 0.0320852 0.0324655 0.0328509 0.0332414
0.0336373 0.0340389 0.0344472 0.0348674 0.0352984 0.0357405 0.0361961 0.036315 0.0364353 0.036557
0.0366802 0.0367471 0.036882 0.0370187 0.0371573 0.0372976 0.037441 0.03771 0.0379894 0.0382799
0.0385821 0.0389112 0.0392506 0.0396038 0.03997 0.0403512 0.040816 0.0410898 0.0413769 0.0416966
0.0420531 0.0424124 0.0429443 0.0435181 0.0441197 0.0448681 0.046901 0 2.52369e-06 5.04739e-06
7.57109e-06 1.00948e-05 1.26186e-05 2.04992e-05 2.83799e-05 3.62607e-05 4.41416e-05 5.20225e-05 0.000377177 0.000702416
0.00102774 0.00135315 0.00167867 0.0020043 0.00233007 0.00265599 0.00298204 0.00330824 0.00363458 0.00396109
0.00428775 0.00461457 0.00494155 0.00526868 0.00559597 0.00592342 0.00625102 0.00657878 0.0069067 0.00723478
0.00756302 0.00789143 0.00822001 0.00854875 0.00887767 0.00920677 0.00953604 0.0098655 0.0101951 0.0105249
0.0108549 0.011185 0.0115154 0.0118458 0.0121765 0.0125073 0.0128383 0.0131694 0.0135007 0.0138321
0.0141638 0.0144956 0.0148276 0.0151598 0.0154923 0.015825 0.0161579 0.0164911 0.0168245 0.0171582
0.0174923 0.0178266 0.0181613 0.0184962 0.0188315 0.0191671 0.0195031 0.0198394 0.020176 0.020513
0.0208504 0.0211881 0.0215263 0.0218647 0.0222037 0.0225431 0.022883 0.0232233 0.0235642 0.0239057
0.0242479 0.0245906 0.024934 0.025278 0.0256227 0.0259681 0.0263143 0.0266613 0.0270091 0.027358
0.027708 0.028059 0.028411 0.028764 0.0291184 0.0294741 0.0298313 0.03019 0.0305506 0.0309135
0.0312786 0.0316457 0.0320149 0.0323866 0.0327613 0.0331391 0.0335199 0.0339051 0.0342958 0.0346935
0.035098 0.0355085 0.0359263 0.0361393 0.0363547 0.0365723 0.0367924 0.0370163 0.0372435 0.0374741
0.0377081 0.0379457 0.0381917 0.0384406 0.0386963 0.0389571 0.0392224 0.0395029 0.0395309 0.0395589
0.0395871 0.0396153 0.0396407 0.0398955 0.0401554 0.04042 0.0406892 0.0409924 0.0413198 0.0416515
0.0419864 0.0423235 0.0427025 0.0427217 0.0427408 0.0427597 0.0427789 0.0427977 0.0431831 0.0435856
0.0440427 0.0445697 0.0451437 0.0454688 0.0458041 0.0461483 0.0464991 0.0468991 0.0475288 0.0479392
0.0482663 0.048645 0.0517724 0 2.51336e-06 5.02674e-06 7.54012e-06 1.00535e-05 1.25671e-05 2.04535e-05
2.834e-05 3.62266e-05 4.41133e-05 5.20001e-05 0.000377014 0.000702116 0.00102731 0.00135258 0.00167795 0.00200341
0.00232902 0.00265478 0.00298068 0.00330673 0.00363293 0.00395929 0.00428581 0.0046125 0.00493935 0.00526637
0.00559355 0.00592089 0.00624839 0.00657604 0.00690385 0.00723183 0.00755997 0.00788828 0.00821675 0.00854539
0.00887421 0.00920322 0.0095324 0.00986176 0.0101913 0.010521 0.0108509 0.0111809 0.0115112 0.0118416
0.0121721 0.0125028 0.0128337 0.0131647 0.0134959 0.0138272 0.0141588 0.0144905 0.0148224 0.0151545
0.0154868 0.0158194 0.0161523 0.0164853 0.0168186 0.0171523 0.0174862 0.0178204 0.0181549 0.0184897
0.0188248 0.0191601 0.0194959 0.0198319 0.0201682 0.0205049 0.0208419 0.0211793 0.021517 0.021855
0.0221935 0.0225323 0.0228717 0.0232114 0.0235516 0.0238924 0.0242336 0.0245755 0.0249179 0.0252608
0.0256043 0.0259484 0.0262931 0.0266385 0.0269846 0.0273315 0.0276792 0.0280278 0.0283772 0.0287273
0.0290784 0.0294305 0.0297838 0.0301383 0.030494 0.0308512 0.03121 0.0315703 0.0319322 0.0322956
0.0326606 0.0330274 0.0333964 0.0337679 0.0341421 0.0345199 0.0349013 0.0352863 0.0356748 0.0360666
0.0364617 0.0368602 0.0372637 0.0376759 0.0378852 0.038096 0.0383082 0.0385218 0.0387393 0.0389586
0.0391793 0.0394023 0.0396275 0.0398602 0.0400927 0.0403277 0.0405651 0.040804 0.0410549 0.0412842
0.0415143 0.0417451 0.0419764 0.0421153 0.0421485 0.0421818 0.0422151 0.0422484 0.042282 0.0425257
0.0427695 0.0430137 0.0432581 0.0435234 0.0437763 0.0440655 0.044389 0.0446822 0.0449487 0.0449599
0.0449711 0.0449821 0.0449933 0.0450043 0.0452818 0.045594 0.0459813 0.0464771 0.0468518 0.0470608
0.0472349 0.0474113 0.04759 0.0477539 0.0480057 0.0482661 0.0485462 0.048843 0.0490654 0.0491472
0.0492172 0.0492783 0.0493408 0.0494086 0.0495444 0.0496785 0.0498102 0.0499429 0.0500856 0.0502179
0.0503143 0.0503899 0.0504741 0.0505693 0.0506962 0.0508241 0.050953 0.0510878 0.0512347 0.0514714
0.0516306 0.0517737 0.0519031 0.0520248 0.0520917 0.0521579 0.0522235 0.0522907 0.0523601 0.0523755
0.0523897 0.0524029 0.0524163 0.0524305 0.0524933 0.0525564 0.0526234 0.052708 0.0527779 0.0528488
0.0529028 0.0529522 0.0529977 0.0530437 0.053059 0.0530729 0.0530856 0.0530988 0.0531125 0.053164
0.0532165 0.0532716 0.0533305 0.0533925 0.0534632 0.0535224 0.0535823 0.0536348 0.0536817 0.0536981
0.0537128 0.0537275 0.0537423 0.0537571 0.0538015 0.0538501 0.053911 0.0539927 0.0540596 0.0540929
0.0541231 0.0541533 0.0541835 0.0542136 0.0542252 0.0542361 0.0542464 0.0542562 0.054267 0.0543084
0.0543517 0.0543972 0.0544506 0.0545047 0.0545879 0.0546424 0.0546921 0.0547378 0.0547766 0.0547814
0.0547861 0.0547908 0.0547954 0.0548001 0.0548281 0.0548538 0.0548794 0.0549047 0.0549304 0.0549393
0.0549477 0.0549558 0.0549638 0.054972 0.0550089 0.0550507 0.0550959 0.0551448 0.0551981 0.0552192
0.0552393 0.0552591 0.05528 0.0553018 0.0553572 0.055405 0.0554473 0.0554852 0.0555184 0.055542
0.0555631 0.055584 0.0556047 0.0556268 0.0556285 0.0556302 0.0556319 0.0556335 0.0556352 0.0556788
0.0557287 0.055789 0.0558653 0.0559333 0.0559725 0.0560063 0.0560383 0.0560688 0.0560949 0.0561209
0.0561453 0.0561682 0.0561898 0.0562106 0.0562298 0.0562464 0.0562622 0.056278 0.0562952 0.0563396
0.0563868 0.056438 0.0564939 0.0565553 0.056624 0.0566816 0.0567318 0.0567773 0.0568181 0.0568651
0.0569016 0.0569352 0.056968 0.0570038 0.0570103 0.0570168 0.0570233 0.0570298 0.0570362 0.0570803
0.0571248 0.0571728 0.0572252 0.0572833 0.0573384 0.0573779 0.057413 0.0574481 0.0574875 0.0574895
0.0574915 0.0574935 0.0574956 0.0574976 0.0575425 0.0575893 0.0576411 0.0577106 0.0577719 0.0578298
0.0578715 0.0579083 0.0579444 0.0579799 0.0579966 0.0580116 0.058026 0.0580405 0.0580557 0.0580806
0.0581055 0.0581304 0.0581553 0.0581801 0.0582236 0.0582672 0.0583109 0.0583576 0.0584083 0.058454
0.0584892 0.0585234 0.0585576 0.0585967 0.0585997 0.0586027 0.0586057 0.0586087 0.0586118 0.0586517
0.0586918 0.0587319 0.0587722 0.0588121 0.0588564 0.0589008 0.0589453 0.0589898 0.0590398 0.0590885
0.0591263 0.0591641 0.059202 0.0592445 0.059245 0.0592454 0.0592459 0.0592464 0.0592469 0.0592871
0.0593274 0.0593678 0.0594083 0.0594486 0.0594904 0.0595324 0.0595744 0.0596166 0.0596585 0.0597025
0.0597467 0.059791 0.0598354 0.0598796 0.0598981 0.0599148 0.0599316 0.0599483 0.0599664 0.0599911
0.0600158 0.0600405 0.0600653 0.06009 0.0601324 0.0601749 0.0602176 0.0602604 0.0603031 0.0603461
0.0603892 0.0604325 0.060476 0.0605193 0.0605636 0.0606081 0.0606529 0.0606978 0.0607424 0.0607863
0.0608303 0.0608743 0.0609185 0.0609681 0.0609686 0.0609691 0.0609697 0.0609702 0.0609707 0.0610163