# vtk DataFile Version 2.0
tracks
ASCII
DATASET POLYDATA
POINTS 4030 float
-1.001 1e-07 0.0011 -1.0008 1e-07 0.0011 -1.0006 1e-07 0.0011 -1.0004 1e-07
0.0011 -1.0002 1e-07 0.0011 -1 1e-07 0.0011 -0.99375 1e-07 0.0011
-0.9875 1e-07 0.0011 -0.98125 1e-07 0.0011 -0.975 1e-07 0.0011 -0.96875
1e-07 0.0011 -0.9625 1e-07 0.0011 -0.95625 1e-07 0.0011 -0.95 1e-07
0.0011 -0.94375 1e-07 0.0011 -0.9375 1e-07 0.0011 -0.93125 1e-07 0.0011
-0.925 1e-07 0.0011 -0.91875 1e-07 0.0011 -0.9125 1e-07 0.0011 -0.90625
1e-07 0.0011 -0.9 1e-07 0.0011 -0.89375 1e-07 0.0011 -0.8875 1e-07
0.0011 -0.88125 1e-07 0.0011 -0.875 1e-07 0.0011 -0.86875 1e-07 0.0011
-0.8625 1e-07 0.0011 -0.85625 1e-07 0.0011 -0.85 1e-07 0.0011 -0.84375
1e-07 0.0011 -0.8375 1e-07 0.0011 -0.83125 1e-07 0.0011 -0.825 1e-07
0.0011 -0.81875 1e-07 0.0011 -0.8125 1e-07 0.0011 -0.80625 1e-07 0.0011
-0.8 1e-07 0.0011 -0.79375 1e-07 0.0011 -0.7875 1e-07 0.0011 -0.78125
1e-07 0.0011 -0.775 1e-07 0.0011 -0.76875 1e-07 0.0011 -0.7625 1e-07
0.0011 -0.75625 1e-07 0.0011 -0.75 1e-07 0.0011 -0.74375 1e-07 0.0011
-0.7375 1e-07 0.0011 -0.73125 1e-07 0.0011 -0.725 1e-07 0.0011 -0.71875
1e-07 0.0011 -0.7125 1e-07 0.0011 -0.70625 1e-07 0.0011 -0.7 1e-07
0.0011 -0.69375 1e-07 0.0011 -0.6875 1e-07 0.0011 -0.68125 1e-07 0.0011
-0.675 1e-07 0.0011 -0.66875 1e-07 0.0011 -0.6625 1e-07 0.0011 -0.65625
1e-07 0.0011 -0.65 1e-07 0.0011 -0.64375 1e-07 0.0011 -0.6375 1e-07
0.0011 -0.63125 1e-07 0.0011 -0.625 1e-07 0.0011 -0.61875 1e-07 0.0011
-0.6125 1e-07 0.0011 -0.60625 1e-07 0.0011 -0.6 1e-07 0.0011 -0.59375
1e-07 0.0011 -0.5875 1e-07 0.0011 -0.58125 1e-07 0.0011 -0.575 1e-07
0.0011 -0.56875 1e-07 0.0011 -0.5625 1e-07 0.0011 -0.55625 1e-07 0.0011
-0.55 1e-07 0.0011 -0.54375 1e-07 0.0011 -0.5375 1e-07 0.0011 -0.53125
1e-07 0.0011 -0.525 1e-07 0.0011 -0.51875 1e-07 0.0011 -0.5125 1e-07
0.0011 -0.50625 1e-07 0.0011 -0.5 1e-07 0.0011 -0.49375 1e-07 0.0011
-0.4875 1e-07 0.0011 -0.48125 1e-07 0.0011 -0.475 1e-07 0.0011 -0.46875
1e-07 0.0011 -0.4625 1e-07 0.0011 -0.45625 1e-07 0.0011 -0.45 1e-07
0.0011 -0.44375 1e-07 0.0011 -0.4375 1e-07 0.0011 -0.431249 1e-07 0.0011
-0.424999 1e-07 0.0011 -0.418749 1e-07 0.0011 -0.412499 1e-07 0.0011 -0.406249
1e-07 0.0011 -0.404101 1e-07 0.0011 -0.401953 1e-07 0.0011 -0.399805 1e-07
0.0011 -0.397657 1e-07 0.0011 -0.395509 1e-07 0.0011 -0.391406 1e-07 0.0011
-0.387303 1e-07 0.0011 -0.3832 1e-07 0.0011 -0.379098 1e-07 0.0011 -0.374995
1e-07 0.0011 -0.368743 1e-07 0.0011 -0.36249 1e-07 0.0011 -0.356238 1e-07
0.0011 -0.349986 1e-07 0.0011 -0.343734 1e-07 0.0011 -0.337478 1e-07 0.0011
-0.331222 1e-07 0.0011 -0.324966 1e-07 0.0011 -0.318711 1e-07 0.0011 -0.312455
1e-07 0.0011 -0.306193 1e-07 0.0011 -0.299931 1e-07 0.0011 -0.293668 1e-07
0.0011 -0.287406 1e-07 0.0011 -0.281144 1e-07 0.0011 -0.274873 1e-07 0.0011
-0.268602 1e-07 0.0011 -0.262331 1e-07 0.0011 -0.25606 1e-07 0.0011 -0.249789
1e-07 0.0011 -0.243517 1e-07 0.0011 -0.237245 1e-07 0.0011 -0.230973 1e-07
0.0011 -0.224701 1e-07 0.0011 -0.218429 1e-07 0.0011 -0.215288 1e-07 0.0011
-0.212148 1e-07 0.0011 -0.209007 1e-07 0.0011 -0.205867 1e-07 0.0011 -0.202726
1e-07 0.0011 -0.199587 1e-07 0.0011 -0.196448 1e-07 0.0011 -0.193309 1e-07
0.0011 -0.19017 1e-07 0.0011 -0.187031 1e-07 0.0011 -0.183904 1e-07 0.0011
-0.180778 1e-07 0.0011 -0.177652 1e-07 0.0011 -0.174526 1e-07 0.0011 -0.171399
1e-07 0.0011 -0.168473 1e-07 0.0011 -0.165547 1e-07 0.0011 -0.16262 1e-07
0.0011 -0.159694 1e-07 0.0011 -0.156768 1e-07 0.0011 -0.156587 1e-07 0.0011
-0.156406 1e-07 0.0011 -0.156225 1e-07 0.0011 -0.156044 1e-07 0.0011 -0.155862
1e-07 0.0011 -0.15275 1e-07 0.0011 -0.149638 1e-07 0.0011 -0.146526 1e-07
0.0011 -0.143413 1e-07 0.0011 -0.140301 1e-07 0.0011 -0.137186 1e-07 0.0011
-0.13407 1e-07 0.0011 -0.130955 1e-07 0.0011 -0.12784 1e-07 0.0011 -0.124724
1e-07 0.0011 -0.123406 1e-07 0.0011 -0.122087 1e-07 0.0011 -0.120769 1e-07
0.0011 -0.11945 1e-07 0.0011 -0.118132 1e-07 0.0011 -0.116255 1e-07 0.0011
-0.114378 1e-07 0.0011 -0.112501 1e-07 0.0011 -0.110625 1e-07 0.0011 -0.108748
1e-07 0.0011 -0.105566 1e-07 0.0011 -0.102384 1e-07 0.0011 -0.0992022 1e-07
0.0011 -0.0960203 1e-07 0.0011 -0.0928384 1e-07 0.0011 -0.0899773 1e-07 0.0011
-0.0871162 1e-07 0.0011 -0.0842552 1e-07 0.0011 -0.0813941 1e-07 0.0011 -0.0785331
1e-07 0.0011 -1.001 1e-07 0.0537316 -1.0008 1e-07 0.0537316 -1.0006 1e-07
0.0537316 -1.0004 1e-07 0.0537316 -1.0002 1e-07 0.0537316 -1 1e-07 0.0537316
-0.99375 1e-07 0.0537316 -0.9875 1e-07 0.0537316 -0.98125 1e-07 0.0537316 -0.975
1e-07 0.0537316 -0.96875 1e-07 0.0537316 -0.9625 1e-07 0.0537316 -0.95625 1e-07
0.0537316 -0.95 1e-07 0.0537316 -0.94375 1e-07 0.0537316 -0.9375 1e-07 0.0537316
-0.93125 1e-07 0.0537316 -0.925 1e-07 0.0537316 -0.91875 1e-07 0.0537316 -0.9125
1e-07 0.0537316 -0.90625 1e-07 0.0537316 -0.9 1e-07 0.0537316 -0.89375 1e-07
0.0537316 -0.8875 1e-07 0.0537316 -0.88125 1e-07 0.0537316 -0.875 1e-07 0.0537316
-0.86875 1e-07 0.0537316 -0.8625 1e-07 0.0537316 -0.85625 1e-07 0.0537316 -0.85
1e-07 0.0537316 -0.84375 1e-07 0.0537316 -0.8375 1e-07 0.0537316 -0.83125 1e-07
0.0537316 -0.825 1e-07 0.0537316 -0.81875 1e-07 0.0537316 -0.8125 1e-07 0.0537316
-0.80625 1e-07 0.0537316 -0.8 1e-07 0.0537316 -0.79375 1e-07 0.0537316 -0.7875
1e-07 0.0537316 -0.78125 1e-07 0.0537316 -0.775 1e-07 0.0537316 -0.76875 1e-07
0.0537316 -0.7625 1e-07 0.0537316 -0.75625 1e-07 0.0537316 -0.75 1e-07 0.0537316
-0.74375 1e-07 0.0537316 -0.7375 1e-07 0.0537316 -0.73125 1e-07 0.0537316 -0.725
1e-07 0.0537316 -0.71875 1e-07 0.0537316 -0.7125 1e-07 0.0537316 -0.70625 1e-07
0.0537316 -0.7 1e-07 0.0537316 -0.69375 1e-07 0.0537316 -0.6875 1e-07 0.0537316
-0.68125 1e-07 0.0537316 -0.675 1e-07 0.0537316 -0.66875 1e-07 0.0537316 -0.6625
1e-07 0.0537316 -0.65625 1e-07 0.0537316 -0.65 1e-07 0.0537316 -0.64375 1e-07
0.0537316 -0.6375 1e-07 0.0537316 -0.63125 1e-07 0.0537316 -0.625 1e-07 0.0537316
-0.61875 1e-07 0.0537316 -0.6125 1e-07 0.0537316 -0.60625 1e-07 0.0537316 -0.6
1e-07 0.0537316 -0.59375 1e-07 0.0537316 -0.5875 1e-07 0.0537316 -0.58125 1e-07
0.0537316 -0.575 1e-07 0.0537316 -0.56875 1e-07 0.0537316 -0.5625 1e-07 0.0537316
-0.55625 1e-07 0.0537316 -0.55 1e-07 0.0537316 -0.54375 1e-07 0.0537316 -0.5375
1e-07 0.0537316 -0.53125 1e-07 0.0537316 -0.525 1e-07 0.0537316 -0.51875 1e-07
0.0537316 -0.5125 1e-07 0.0537316 -0.50625 1e-07 0.0537316 -0.5 1e-07 0.0537316
-0.49375 1e-07 0.0537316 -0.4875 1e-07 0.0537316 -0.48125 1e-07 0.0537316 -0.475
1e-07 0.0537316 -0.46875 1e-07 0.0537316 -0.4625 1e-07 0.0537316 -0.456249 1e-07
0.0537316 -0.449999 1e-07 0.0537316 -0.443749 1e-07 0.0537316 -0.437499 1e-07 0.0537316
-0.431416 1e-07 0.0537316 -0.425333 1e-07 0.0537316 -0.41925 1e-07 0.0537316 -0.413168
1e-07 0.0537316 -0.407085 1e-07 0.0537316 -0.406917 1e-07 0.0537316 -0.406749 1e-07
0.0537316 -0.406581 1e-07 0.0537316 -0.406413 1e-07 0.0537316 -0.406245 1e-07 0.0537316
-0.399993 1e-07 0.0537316 -0.393741 1e-07 0.0537316 -0.387489 1e-07 0.0537316 -0.381237
1e-07 0.0537316 -0.374985 1e-07 0.0537316 -0.368729 1e-07 0.0537316 -0.362473 1e-07
0.0537316 -0.356217 1e-07 0.0537316 -0.349962 1e-07 0.0537316 -0.343706 1e-07 0.0537316
-0.337443 1e-07 0.0537316 -0.33118 1e-07 0.0537316 -0.324917 1e-07 0.0537316 -0.318654
1e-07 0.0537316 -0.312391 1e-07 0.0537316 -0.306117 1e-07 0.0537316 -0.299843 1e-07
0.0537316 -0.293569 1e-07 0.0537316 -0.287295 1e-07 0.0537316 -0.28102 1e-07 0.0537316
-0.2747 1e-07 0.0537316 -0.268379 1e-07 0.0537316 -0.262058 1e-07 0.0537316 -0.255737
1e-07 0.0537316 -0.249416 1e-07 0.0537316 -0.246246 1e-07 0.0537316 -0.243075 1e-07
0.0537316 -0.239905 1e-07 0.0537316 -0.236735 1e-07 0.0537316 -0.233564 1e-07 0.0537316
-0.230394 1e-07 0.0537316 -0.227223 1e-07 0.0537316 -0.224052 1e-07 0.0537316 -0.220881
1e-07 0.0537316 -0.217711 1e-07 0.0537316 -0.214556 1e-07 0.0537316 -0.211402 1e-07
0.0537316 -0.208247 1e-07 0.0537316 -0.205093 1e-07 0.0537316 -0.201938 1e-07 0.0537316
-0.19863 1e-07 0.0537316 -0.195322 1e-07 0.0537316 -0.192015 1e-07 0.0537316 -0.188707
1e-07 0.0537316 -0.185399 1e-07 0.0537316 -0.181862 1e-07 0.0537316 -0.178326 1e-07
0.0537316 -0.174789 1e-07 0.0537316 -0.171252 1e-07 0.0537316 -0.167716 1e-07 0.0537316
-1.001 1e-07 0.106363 -1.0008 1e-07 0.106363 -1.0006 1e-07 0.106363 -1.0004
1e-07 0.106363 -1.0002 1e-07 0.106363 -1 1e-07 0.106363 -0.99375 1e-07
0.106363 -0.9875 1e-07 0.106363 -0.98125 1e-07 0.106363 -0.975 1e-07 0.106363
-0.96875 1e-07 0.106363 -0.9625 1e-07 0.106363 -0.95625 1e-07 0.106363 -0.95
1e-07 0.106363 -0.94375 1e-07 0.106363 -0.9375 1e-07 0.106363 -0.93125 1e-07
0.106363 -0.925 1e-07 0.106363 -0.91875 1e-07 0.106363 -0.9125 1e-07 0.106363
-0.90625 1e-07 0.106363 -0.9 1e-07 0.106363 -0.89375 1e-07 0.106363 -0.8875
1e-07 0.106363 -0.88125 1e-07 0.106363 -0.875 1e-07 0.106363 -0.86875 1e-07
0.106363 -0.8625 1e-07 0.106363 -0.85625 1e-07 0.106363 -0.85 1e-07 0.106363
-0.84375 1e-07 0.106363 -0.8375 1e-07 0.106363 -0.83125 1e-07 0.106363 -0.825
1e-07 0.106363 -0.81875 1e-07 0.106363 -0.8125 1e-07 0.106363 -0.80625 1e-07
0.106363 -0.8 1e-07 0.106363 -0.79375 1e-07 0.106363 -0.7875 1e-07 0.106363
-0.78125 1e-07 0.106363 -0.775 1e-07 0.106363 -0.76875 1e-07 0.106363 -0.7625
1e-07 0.106363 -0.75625 1e-07 0.106363 -0.75 1e-07 0.106363 -0.74375 1e-07
0.106363 -0.7375 1e-07 0.106363 -0.73125 1e-07 0.106363 -0.725 1e-07 0.106363
-0.71875 1e-07 0.106363 -0.7125 1e-07 0.106363 -0.70625 1e-07 0.106363 -0.7
1e-07 0.106363 -0.69375 1e-07 0.106363 -0.6875 1e-07 0.106363 -0.68125 1e-07
0.106363 -0.675 1e-07 0.106363 -0.66875 1e-07 0.106363 -0.6625 1e-07 0.106363
-0.65625 1e-07 0.106363 -0.65 1e-07 0.106363 -0.64375 1e-07 0.106363 -0.6375
1e-07 0.106363 -0.63125 1e-07 0.106363 -0.625 1e-07 0.106363 -0.61875 1e-07
0.106363 -0.6125 1e-07 0.106363 -0.60625 1e-07 0.106363 -0.6 1e-07 0.106363
-0.59375 1e-07 0.106363 -0.5875 1e-07 0.106363 -0.58125 1e-07 0.106363 -0.575
1e-07 0.106363 -0.56875 1e-07 0.106363 -0.5625 1e-07 0.106363 -0.55625 1e-07
0.106363 -0.55 1e-07 0.106363 -0.54375 1e-07 0.106363 -0.5375 1e-07 0.106363
[...]
POINT_DATA 4030
FIELD attributes 3
age 1 4030 float
0 1e-05 2e-05 3e-05 4e-05 5e-05 0.0003625 0.000675 0.0009875 0.0013 0.0016125
0.001925 0.0022375 0.00255 0.0028625 0.003175 0.0034875 0.0038 0.0041125 0.004425 0.0047375
0.00505 0.0053625 0.005675 0.0059875 0.0063 0.0066125 0.006925 0.0072375 0.00755 0.0078625
0.008175 0.0084875 0.0088 0.0091125 0.009425 0.0097375 0.01005 0.0103625 0.010675 0.0109875
0.0113 0.0116125 0.011925 0.0122375 0.01255 0.0128625 0.013175 0.0134875 0.0138 0.0141125
0.014425 0.0147375 0.01505 0.0153625 0.015675 0.0159875 0.0163 0.0166125 0.016925 0.0172375
0.01755 0.0178625 0.018175 0.0184875 0.0188 0.0191125 0.019425 0.0197375 0.02005 0.0203625
0.020675 0.0209875 0.0213 0.0216125 0.021925 0.0222375 0.02255 0.0228625 0.023175 0.0234875
0.0238 0.0241125 0.024425 0.0247375 0.02505 0.0253625 0.025675 0.0259875 0.0263 0.0266125
0.026925 0.0272375 0.02755 0.0278625 0.028175 0.0284875 0.0288 0.0291126 0.0294251 0.0297376
0.029845 0.0299524 0.0300598 0.0301672 0.0302746 0.0304797 0.0306848 0.03089 0.0310951 0.0313003
0.0316129 0.0319255 0.0322381 0.0325507 0.0328633 0.0331761 0.0334889 0.0338017 0.0341145 0.0344272
0.0347404 0.0350535 0.0353666 0.0356797 0.0359928 0.0363063 0.0366199 0.0369334 0.037247 0.0375605
0.0378741 0.0381877 0.0385013 0.0388149 0.0391285 0.0392856 0.0394426 0.0395996 0.0397567 0.0399137
0.0400707 0.0402276 0.0403846 0.0405415 0.0406985 0.0408548 0.0410111 0.0411674 0.0413237 0.04148
0.0416263 0.0417727 0.041919 0.0420653 0.0422116 0.0422207 0.0422297 0.0422388 0.0422478 0.0422569
0.0424125 0.0425681 0.0427237 0.0428793 0.0430349 0.0431907 0.0433465 0.0435023 0.043658 0.0438138
0.0438797 0.0439497 0.0440198 0.0440898 0.0441599 0.0442597 0.0443594 0.0444591 0.0445587 0.0446584
0.0448275 0.0449963 0.0451649 0.0453334 0.0455018 0.0456573 0.0458265 0.046013 0.0462209 0.0464557
0 1e-05 2e-05 3e-05 4e-05 5e-05 0.0003625 0.000675 0.0009875 0.0013
0.0016125 0.001925 0.0022375 0.00255 0.0028625 0.003175 0.0034875 0.0038 0.0041125 0.004425
0.0047375 0.00505 0.0053625 0.005675 0.0059875 0.0063 0.0066125 0.006925 0.0072375 0.00755
0.0078625 0.008175 0.0084875 0.0088 0.0091125 0.009425 0.0097375 0.01005 0.0103625 0.010675
0.0109875 0.0113 0.0116125 0.011925 0.0122375 0.01255 0.0128625 0.013175 0.0134875 0.0138
0.0141125 0.014425 0.0147375 0.01505 0.0153625 0.015675 0.0159875 0.0163 0.0166125 0.016925
0.0172375 0.01755 0.0178625 0.018175 0.0184875 0.0188 0.0191125 0.019425 0.0197375 0.02005
0.0203625 0.020675 0.0209875 0.0213 0.0216125 0.021925 0.0222375 0.02255 0.0228625 0.023175
0.0234875 0.0238 0.0241125 0.024425 0.0247375 0.02505 0.0253625 0.025675 0.0259875 0.0263
0.0266125 0.026925 0.0272375 0.02755 0.0278626 0.0281751 0.0284792 0.0287833 0.0290875 0.0293916
0.0296958 0.0297042 0.0297125 0.0297209 0.0297293 0.0297377 0.0300503 0.0303629 0.0306755 0.0309882
0.0313008 0.0316136 0.0319263 0.0322391 0.0325519 0.0328647 0.0331779 0.033491 0.0338042 0.0341173
0.0344305 0.0347442 0.0350579 0.0353716 0.0356853 0.035999 0.036315 0.0366311 0.0369471 0.0372632
0.0375792 0.0377377 0.0378962 0.0380548 0.0382133 0.0383718 0.0385303 0.0386889 0.0388474 0.0390059
0.0391645 0.0393222 0.0394799 0.0396376 0.0397954 0.0399531 0.0401185 0.0403192 0.0405555 0.0407904
0.0410238 0.0412744 0.0415812 0.0419865 0.0425834 0.0437153 0 1e-05 2e-05 3e-05
4e-05 5e-05 0.0003625 0.000675 0.0009875 0.0013 0.0016125 0.001925 0.0022375 0.00255
0.0028625 0.003175 0.0034875 0.0038 0.0041125 0.004425 0.0047375 0.00505 0.0053625 0.005675
0.0059875 0.0063 0.0066125 0.006925 0.0072375 0.00755 0.0078625 0.008175 0.0084875 0.0088
0.0091125 0.009425 0.0097375 0.01005 0.0103625 0.010675 0.0109875 0.0113 0.0116125 0.011925
0.0122375 0.01255 0.0128625 0.013175 0.0134875 0.0138 0.0141125 0.014425 0.0147375 0.01505
0.0153625 0.015675 0.0159875 0.0163 0.0166125 0.016925 0.0172375 0.01755 0.0178625 0.018175
0.0184875 0.0188 0.0191125 0.019425 0.0197375 0.02005 0.0203625 0.020675 0.0209875 0.0213
0.0216125 0.021925 0.0222375 0.02255 0.0228625 0.023175 0.0234875 0.0238 0.0241125 0.024425
0.0247375 0.02505 0.0253625 0.025675 0.0259875 0.0263 0.0266125 0.0269251 0.0272376 0.0275501
0.0278627 0.0281752 0.0284878 0.0288004 0.029113 0.0294256 0.0297382 0.030051 0.0303638 0.0306767
0.0309895 0.0313023 0.0313881 0.0314738 0.0315596 0.0316454 0.0317311 0.0319586 0.0321862 0.0324137
0.0326412 0.0328687 0.0331828 0.0334969 0.033811 0.0341252 0.0344393 0.0347541 0.0350689 0.0353838
0.0356986 0.0360135 0.0361707 0.0363279 0.0364852 0.0366424 0.0367997 0.0369577 0.0371158 0.0372739
0.037432 0.0375901 0.037773 0.0379957 0.0382822 0.0386837 0.0391274 0.0393267 0.0395676 0.0398855
0.0403526 0.0412327 0 1e-05 2e-05 3e-05 4e-05 5e-05 0.0003625 0.000675
0.0009875 0.0013 0.0016125 0.001925 0.0022375 0.00255 0.0028625 0.003175 0.0034875 0.0038
0.0041125 0.004425 0.0047375 0.00505 0.0053625 0.005675 0.0059875 0.0063 0.0066125 0.006925
0.0072375 0.00755 0.0078625 0.008175 0.0084875 0.0088 0.0091125 0.009425 0.0097375 0.01005
0.0103625 0.010675 0.0109875 0.0113 0.0116125 0.011925 0.0122375 0.01255 0.0128625 0.013175
0.0134875 0.0138 0.0141125 0.014425 0.0147375 0.01505 0.0153625 0.015675 0.0159875 0.0163
0.0166125 0.016925 0.0172375 0.01755 0.0178625 0.018175 0.0184875 0.0188 0.0191125 0.019425
0.0197375 0.02005 0.0203625 0.020675 0.0209875 0.0213 0.0216125 0.021925 0.0222375 0.02255
0.0228625 0.023175 0.0234875 0.0238 0.0241125 0.024425 0.0247375 0.02505 0.0253625 0.0256751
0.0259876 0.0263001 0.0266126 0.0269252 0.0272377 0.0275503 0.0278628 0.0281754 0.0284881 0.0288008
0.0291135 0.0294262 0.0297389 0.030052 0.030365 0.0306781 0.0309911 0.0313042 0.0316182 0.0319321
0.0322461 0.03256 0.032874 0.0331901 0.0335061 0.0338222 0.0341383 0.0344544 0.0345852 0.034716
0.0348468 0.0349777 0.0351085 0.0351377 0.0351669 0.0351961 0.0352253 0.0352545 0.0354176 0.0355807
0.0357437 0.0359068 0.0360699 0.0361539 0.036247 0.0363487 0.0364602 0.0365836 0.0367758 0.0370024
0.0372796 0.0376365 0.0381374 0.0383085 0.0384873 0.0387147 0.0390267 0.039524 0 1e-05
2e-05 3e-05 4e-05 5e-05 0.0003625 0.000675 0.0009875 0.0013 0.0016125 0.001925
0.0022375 0.00255 0.0028625 0.003175 0.0034875 0.0038 0.0041125 0.004425 0.0047375 0.00505
0.0053625 0.005675 0.0059875 0.0063 0.0066125 0.006925 0.0072375 0.00755 0.0078625 0.008175
0.0084875 0.0088 0.0091125 0.009425 0.0097375 0.01005 0.0103625 0.010675 0.0109875 0.0113
0.0116125 0.011925 0.0122375 0.01255 0.0128625 0.013175 0.0134875 0.0138 0.0141125 0.014425
0.0147375 0.01505 0.0153625 0.015675 0.0159875 0.0163 0.0166125 0.016925 0.0172375 0.01755
0.0178625 0.018175 0.0184875 0.0188 0.0191125 0.019425 0.0197375 0.02005 0.0203625 0.020675
0.0209875 0.0213 0.0216125 0.021925 0.0222375 0.02255 0.0228625 0.023175 0.0234875 0.0238
0.0241125 0.024425 0.0247375 0.0250501 0.025155 0.02526 0.025365 0.0254699 0.0255749 0.0257825
0.02599 0.0261976 0.0264052 0.0266127 0.0266515 0.0266902 0.026729 0.0267677 0.0268065 0.0268724
0.0269384 0.0270043 0.0270703 0.0271362 0.0273441 0.027552 0.0277599 0.0279679 0.0281758 0.0284886
0.0288014 0.0291142 0.029427 0.0297398 0.0297513 0.0297628 0.0297743 0.0297859 0.0297974 0.030099
0.0304006 0.0307022 0.0310038 0.0313054 0.0316187 0.031932 0.0322453 0.0325586 0.0328719 0.0330289
0.0331859 0.0333429 0.0334999 0.0336569 0.033814 0.0339712 0.0341284 0.0342855 0.0344427 0.0345994
0.034756 0.0349127 0.0350693 0.0352259 0.0352427 0.0352598 0.0352774 0.0352953 0.0353137 0.035494
0.0357259 0.0360479 0.0365104 0.0373309 0 1e-05 2e-05 3e-05 4e-05 5e-05
0.0003625 0.000675 0.0009875 0.0013 0.0016125 0.001925 0.0022375 0.00255 0.0028625 0.003175
0.0034875 0.0038 0.0041125 0.004425 0.0047375 0.00505 0.0053625 0.005675 0.0059875 0.0063
0.0066125 0.006925 0.0072375 0.00755 0.0078625 0.008175 0.0084875 0.0088 0.0091125 0.009425
0.0097375 0.01005 0.0103625 0.010675 0.0109875 0.0113 0.0116125 0.011925 0.0122375 0.01255
0.0128625 0.013175 0.0134875 0.0138 0.0141125 0.014425 0.0147375 0.01505 0.0153625 0.015675
0.0159875 0.0163 0.0166125 0.016925 0.0172375 0.01755 0.0178625 0.018175 0.0184875 0.0188
0.0191125 0.019425 0.0197375 0.02005 0.0203625 0.020675 0.0209875 0.0213 0.0216125 0.021925
0.0222375 0.02255 0.0228625 0.023175 0.0234875 0.0236107 0.0237339 0.023857 0.0239802 0.0241033
0.0242927 0.0244821 0.0246714 0.0248608 0.0250501 0.0253627 0.0256753 0.0259879 0.0263004 0.026613
0.0269258 0.0272385 0.0275513 0.0278641 0.0281768 0.0284901 0.0288034 0.0291167 0.02943 0.0297433
0.0300579 0.0303724 0.030687 0.0310015 0.0313161 0.0316341 0.0319522 0.0322702 0.0325882 0.0329063
0.0330671 0.033228 0.0333889 0.0335498 0.0337106 0.0338741 0.0340376 0.034201 0.0343645 0.0345279
0.0347101 0.0349309 0.0352157 0.0356164 0.0362332 0.0363317 0.0364487 0.0366029 0.036829 0.0372524
0 1e-05 2e-05 3e-05 4e-05 5e-05 0.0003625 0.000675 0.0009875 0.0013
0.0016125 0.001925 0.0022375 0.00255 0.0028625 0.003175 0.0034875 0.0038 0.0041125 0.004425
0.0047375 0.00505 0.0053625 0.005675 0.0059875 0.0063 0.0066125 0.006925 0.0072375 0.00755
0.0078625 0.008175 0.0084875 0.0088 0.0091125 0.009425 0.0097375 0.01005 0.0103625 0.010675
0.0109875 0.0113 0.0116125 0.011925 0.0122375 0.01255 0.0128625 0.013175 0.0134875 0.0138
0.0141125 0.014425 0.0147375 0.01505 0.0153625 0.015675 0.0159875 0.0163 0.0166125 0.016925
0.0172375 0.01755 0.0178625 0.018175 0.0184875 0.0188 0.0191125 0.019425 0.0197375 0.02005
0.0203625 0.020675 0.0209875 0.0213 0.0216125 0.021925 0.0222375 0.02255 0.0228625 0.023175
0.0234875 0.0235587 0.0236299 0.0237012 0.0237724 0.0238436 0.0240849 0.0243262 0.0245675 0.0248088
0.0250501 0.0253627 0.0256753 0.0259879 0.0263005 0.0266131 0.0269259 0.0272387 0.0275515 0.0278643
0.0281771 0.0284906 0.028804 0.0291174 0.0294309 0.0297443 0.0300594 0.0303744 0.0306894 0.0310044
0.0313195 0.0316383 0.031957 0.0322758 0.0325946 0.0329134 0.0330763 0.0332393 0.0334022 0.0335651
0.0337281 0.0338952 0.0340623 0.0342294 0.0343965 0.0345636 0.034751 0.0349782 0.0352735 0.0357098
0.0365443 0 1e-05 2e-05 3e-05 4e-05 5e-05 0.0003625 0.000675 0.0009875
0.0013 0.0016125 0.001925 0.0022375 0.00255 0.0028625 0.003175 0.0034875 0.0038 0.0041125
0.004425 0.0047375 0.00505 0.0053625 0.005675 0.0059875 0.0063 0.0066125 0.006925 0.0072375
0.00755 0.0078625 0.008175 0.0084875 0.0088 0.0091125 0.009425 0.0097375 0.01005 0.0103625
0.010675 0.0109875 0.0113 0.0116125 0.011925 0.0122375 0.01255 0.0128625 0.013175 0.0134875
0.0138 0.0141125 0.014425 0.0147375 0.01505 0.0153625 0.015675 0.0159875 0.0163 0.0166125
0.016925 0.0172375 0.01755 0.0178625 0.018175 0.0184875 0.0188 0.0191125 0.019425 0.0197375
0.02005 0.0203625 0.020675 0.0209875 0.0213 0.0216125 0.021925 0.0222375 0.02255 0.0228625
0.023175 0.0234875 0.0237384 0.0239893 0.0242403 0.0244912 0.0247421 0.0248037 0.0248653 0.0249269
0.0249885 0.0250501 0.0253626 0.0256752 0.0259877 0.0263003 0.0266128 0.0269255 0.0272381 0.0275508
0.0278635 0.0281761 0.0284891 0.0288021 0.029115 0.029428 0.0297409 0.0300545 0.0303681 0.0306817
0.0309953 0.0313088 0.0316229 0.031937 0.0322511 0.0325652 0.0328793 0.0330368 0.0331943 0.0333518
0.0335094 0.0336669 0.0338237 0.0339806 0.0341374 0.0342943 0.0344511 0.0346042 0.0347573 0.0349104
0.0350635 0.0352166 0.0353224 0.0354466 0.035597 0.0357877 0.0360483 0.0361704 0.0363227 0.0365251
0.0368266 0.0374177 0 1e-05 2e-05 3e-05 4e-05 5e-05 0.0003625 0.000675
0.0009875 0.0013 0.0016125 0.001925 0.0022375 0.00255 0.0028625 0.003175 0.0034875 0.0038
0.0041125 0.004425 0.0047375 0.00505 0.0053625 0.005675 0.0059875 0.0063 0.0066125 0.006925
0.0072375 0.00755 0.0078625 0.008175 0.0084875 0.0088 0.0091125 0.009425 0.0097375 0.01005
0.0103625 0.010675 0.0109875 0.0113 0.0116125 0.011925 0.0122375 0.01255 0.0128625 0.013175
0.0134875 0.0138 0.0141125 0.014425 0.0147375 0.01505 0.0153625 0.015675 0.0159875 0.0163
0.0166125 0.016925 0.0172375 0.01755 0.0178625 0.018175 0.0184875 0.0188 0.0191125 0.019425
0.0197375 0.02005 0.0203625 0.020675 0.0209875 0.0213 0.0216125 0.021925 0.0222375 0.02255
0.0228625 0.023175 0.0234875 0.0238 0.0241125 0.024425 0.0247375 0.02505 0.0251581 0.0252663
0.0253744 0.0254825 0.0255906 0.025795 0.0259994 0.0262038 0.0264082 0.0266127 0.0269253 0.0272378
0.0275504 0.027863 0.0281756 0.0284884 0.0288012 0.029114 0.0294268 0.0297396 0.0300529 0.0303663
0.0306796 0.030993 0.0313063 0.0316213 0.0319362 0.0322512 0.0325661 0.0328811 0.0330399 0.0331988
0.0333577 0.0335165 0.0336754 0.0338363 0.0339972 0.0341581 0.034319 0.0344799 0.0346414 0.034803
0.0349645 0.0351261 0.0352876 0.035444 0.0356005 0.0357569 0.0359134 0.0360698 0.0362114 0.0363883
0.0366269 0.0369937 0.0377866 0 1e-05 2e-05 3e-05 4e-05 5e-05 0.0003625
0.000675 0.0009875 0.0013 0.0016125 0.001925 0.0022375 0.00255 0.0028625 0.003175 0.0034875
0.0038 0.0041125 0.004425 0.0047375 0.00505 0.0053625 0.005675 0.0059875 0.0063 0.0066125
0.006925 0.0072375 0.00755 0.0078625 0.008175 0.0084875 0.0088 0.0091125 0.009425 0.0097375
0.01005 0.0103625 0.010675 0.0109875 0.0113 0.0116125 0.011925 0.0122375 0.01255 0.0128625
0.013175 0.0134875 0.0138 0.0141125 0.014425 0.0147375 0.01505 0.0153625 0.015675 0.0159875
0.0163 0.0166125 0.016925 0.0172375 0.01755 0.0178625 0.018175 0.0184875 0.0188 0.0191125
0.019425 0.0197375 0.02005 0.0203625 0.020675 0.0209875 0.0213 0.0216125 0.021925 0.0222375
0.02255 0.0228625 0.023175 0.0234875 0.0238 0.0241125 0.024425 0.0247375 0.02505 0.0253625
0.025675 0.0259875 0.0263001 0.0266126 0.0267458 0.0268791 0.0270124 0.0271456 0.0272789 0.0274582
0.0276374 0.0278167 0.027996 0.0281753 0.0284879 0.0288005 0.0291132 0.0294258 0.0297385 0.0300514
0.0303643 0.0306772 0.0309902 0.0313031 0.0316167 0.0319303 0.0322438 0.0325574 0.032871 0.033186
0.0335009 0.0338158 0.0341308 0.0344457 0.0346045 0.0347633 0.0349221 0.0350809 0.0352397 0.0354002
0.0355607 0.0357212 0.0358817 0.0360423 0.0362043 0.0363663 0.0365283 0.0366903 0.0368523 0.0370285
0.0372402 0.0375078 0.0378065 0.0381037 0.0382915 0.038518 0.038817 0.0392567 0.0400875 0
1e-05 2e-05 3e-05 4e-05 5e-05 0.0003625 0.000675 0.0009875 0.0013 0.0016125
0.001925 0.0022375 0.00255 0.0028625 0.003175 0.0034875 0.0038 0.0041125 0.004425 0.0047375
0.00505 0.0053625 0.005675 0.0059875 0.0063 0.0066125 0.006925 0.0072375 0.00755 0.0078625
0.008175 0.0084875 0.0088 0.0091125 0.009425 0.0097375 0.01005 0.0103625 0.010675 0.0109875
0.0113 0.0116125 0.011925 0.0122375 0.01255 0.0128625 0.013175 0.0134875 0.0138 0.0141125
0.014425 0.0147375 0.01505 0.0153625 0.015675 0.0159875 0.0163 0.0166125 0.016925 0.0172375
0.01755 0.0178625 0.018175 0.0184875 0.0188 0.0191125 0.019425 0.0197375 0.02005 0.0203625
0.020675 0.0209875 0.0213 0.0216125 0.021925 0.0222375 0.02255 0.0228625 0.023175 0.0234875
0.0238 0.0241125 0.024425 0.0247375 0.02505 0.0253625 0.025675 0.0259875 0.0263 0.0266125
0.026925 0.0272375 0.0275501 0.0278626 0.0281751 0.0282438 0.0283126 0.0283814 0.0284502 0.0285189
0.0287627 0.0290065 0.0292503 0.029494 0.0297378 0.0300504 0.0303631 0.0306757 0.0309884 0.031301
0.0316139 0.0319268 0.0322397 0.0325525 0.0328654 0.0331788 0.0334921 0.0338054 0.0341188 0.0344321
0.0347462 0.0350604 0.0353746 0.0356887 0.0360029 0.0361603 0.0363177 0.0364751 0.0366324 0.0367898
0.0369461 0.0371024 0.0372586 0.0374149 0.0375712 0.0377261 0.0378811 0.038036 0.0381909 0.0383459
0.0384792 0.0386124 0.0387457 0.038879 0.0390123 0.0390318 0.0390514 0.0390709 0.0390905 0.03911
0.0392676 0.0394605 0.0396637 0.0398673 0.0400715 0.0402661 0.0405068 0.0408265 0.0413027 0.0422347
0 1e-05 2e-05 3e-05 4e-05 5e-05 0.0003625 0.000675 0.0009875 0.0013
0.0016125 0.001925 0.0022375 0.00255 0.0028625 0.003175 0.0034875 0.0038 0.0041125 0.004425
0.0047375 0.00505 0.0053625 0.005675 0.0059875 0.0063 0.0066125 0.006925 0.0072375 0.00755
0.0078625 0.008175 0.0084875 0.0088 0.0091125 0.009425 0.0097375 0.01005 0.0103625 0.010675
0.0109875 0.0113 0.0116125 0.011925 0.0122375 0.01255 0.0128625 0.013175 0.0134875 0.0138
0.0141125 0.014425 0.0147375 0.01505 0.0153625 0.015675 0.0159875 0.0163 0.0166125 0.016925
0.0172375 0.01755 0.0178625 0.018175 0.0184875 0.0188 0.0191125 0.019425 0.0197375 0.02005
0.0203625 0.020675 0.0209875 0.0213 0.0216125 0.021925 0.0222375 0.02255 0.0228625 0.023175
0.0234875 0.0238 0.0241125 0.024425 0.0247375 0.02505 0.0253625 0.025675 0.0259875 0.0263
0.0266125 0.026925 0.0272375 0.02755 0.0278625 0.028175 0.0284875 0.0288 0.0291125 0.0294251
0.0297376 0.0297752 0.0298129 0.0298506 0.0298882 0.0299259 0.0302008 0.0304756 0.0307505 0.0310254
0.0313002 0.0316128 0.0319254 0.032238 0.0325506 0.0328632 0.0331759 0.0334886 0.0338013 0.034114
0.0344267 0.0347395 0.0350523 0.0353651 0.0356779 0.0359907 0.0363033 0.0366159 0.0369285 0.0372411
0.0375538 0.0378662 0.0381787 0.0384911 0.0388036 0.0391161 0.0392724 0.0394287 0.0395851 0.0397414
0.0398977 0.0400539 0.04021 0.0403661 0.0405222 0.0406783 0.0407564 0.0408345 0.0409125 0.0409906
0.0410687 0.0411468 0.0412248 0.0413029 0.041381 0.041459 0.0415375 0.0416159 0.0416943 0.0417727
0.0418512 0.0418912 0.0419311 0.0419711 0.0420111 0.0420511 0.0420922 0.0421333 0.0421744 0.0422155
0.0422566 0.0422988 0.0423411 0.0423834 0.0424256 0.0424679 0.0425099 0.0425589 0.0426065 0.0426527
0.0426976 0.0427384 0.0427788 0.0428189 0.0428588 0.0428983 0.0429401 0.0429914 0.0430593 0.04316
0.0433547 0 1e-05 2e-05 3e-05 4e-05 5e-05 0.0003625 0.000675 0.0009875
0.0013 0.0016125 0.001925 0.0022375 0.00255 0.0028625 0.003175 0.0034875 0.0038 0.0041125
0.004425 0.0047375 0.00505 0.0053625 0.005675 0.0059875 0.0063 0.0066125 0.006925 0.0072375
0.00755 0.0078625 0.008175 0.0084875 0.0088 0.0091125 0.009425 0.0097375 0.01005 0.0103625
0.010675 0.0109875 0.0113 0.0116125 0.011925 0.0122375 0.01255 0.0128625 0.013175 0.0134875
0.0138 0.0141125 0.014425 0.0147375 0.01505 0.0153625 0.015675 0.0159875 0.0163 0.0166125
0.016925 0.0172375 0.01755 0.0178625 0.018175 0.0184875 0.0188 0.0191125 0.019425 0.0197375
0.02005 0.0203625 0.020675 0.0209875 0.0213 0.0216125 0.021925 0.0222375 0.02255 0.0228625
0.023175 0.0234875 0.0238 0.0241125 0.024425 0.0247375 0.02505 0.0253625 0.025675 0.0259875
0.0263 0.0266125 0.026925 0.0272375 0.02755 0.0278625 0.028175 0.0284875 0.0288 0.0291125
0.029425 0.0297375 0.03005 0.0303625 0.030675 0.0309875 0.0313 0.0315512 0.0318024 0.0320536
0.0323048 0.032556 0.0326173 0.0326786 0.03274 0.0328013 0.0328626 0.0331751 0.0334876 0.0338002
0.0341127 0.0344252 0.0347378 0.0350503 0.0353628 0.0356754 0.0359879 0.0363004 0.0366129 0.0369254
0.0372379 0.0375504 0.0378629 0.0381753 0.0384878 0.0388002 0.0391127 0.0393642 0.0396157 0.0398673
0.0401188 0.0403704 0.0404313 0.0404922 0.0405532 0.0406141 0.0406751 0.0408313 0.0409876 0.0411438
0.0413001 0.0414564 0.0414733 0.0414903 0.0415072 0.0415242 0.0415411 0.0416805 0.0418198 0.0419591
0.0420985 0.0422378 0.0423941 0.0425504 0.0427067 0.042863 0.0430192 0.0431756 0.0433319 0.0434882
0.0436445 0.0438009 0.0439571 0.0441134 0.0442696 0.0444259 0.0445821 0.0446603 0.0447384 0.0448166
0.0448947 0.0449729 0.0450511 0.0451293 0.0452076 0.0452858 0.045364 0.0454284 0.0454927 0.0455571
0.0456215 0.0456859 0.0456998 0.0457137 0.0457276 0.0457415 0.0457554 0.0458337 0.0459119 0.0459902
0.0460685 0.0461468 0.0462251 0.0463033 0.0463816 0.0464598 0.0465381 0.0466165 0.0466948 0.0467732
0.0468515 0.0469299 0.0470083 0.0470868 0.0471652 0.0472436 0.047322 0.0474004 0.0474787 0.0475571
0.0476354 0.0477137 0.047792 0.0478702 0.0479485 0.0480267 0.048105 0.0481826 0.0482603 0.048338
0.0484156 0.0484933 0.0485714 0.0486495 0.0487277 0.0488058 0.0488839 0.0489623 0.0490407 0.0491191
0.0491975 0.0492759 0.0493538 0.0494317 0.0495096 0.0495874 0.0496653 0.0497431 0.0498208 0.0498985
0.0499762 0.0500539 0.050093 0.0501321 0.0501712 0.0502103 0.0502494 0.0502886 0.0503278 0.0503671
0.0504063 0.0504455 0.0504847 0.0505239 0.0505631 0.0506023 0.0506415 0.0506806 0.0507197 0.0507587
0.0507978 0.0508369 0.0508759 0.0509149 0.0509539 0.0509929 0.0510319 0.0510708 0.0511097 0.0511487
0.0511876 0.0512265 0.0512654 0.0513043 0.0513432 0.0513821 0.0514209 0.0514599 0.0514988 0.0515377