# vtk DataFile Version 2.0
tracks
ASCII
DATASET POLYDATA
POINTS 22390 float
-1.001 1e-07 0.0011 -1.0008 9.81857e-08 0.0011 -1.0006 9.63714e-08 0.00110001 -1.0004 9.45571e-08
0.00110001 -1.0002 9.27428e-08 0.00110002 -1 9.09284e-08 0.00110002 -0.997996 7.27427e-08 0.00110006
-0.995991 5.45795e-08 0.0011001 -0.993987 3.64127e-08 0.00110014 -0.991982 1.82421e-08 0.00110017 -0.98997
1.71751e-28 0.00110021 -0.985726 -3.84881e-08 0.00110029 -0.981482 -7.69955e-08 0.00110037 -0.977238 -1.15522e-07
0.00110045 -0.972994 -1.54068e-07 0.00110053 -0.96875 -1.92634e-07 0.00110061 -0.9625 -2.49334e-07 0.00110073
-0.95625 -3.0618e-07 0.00110084 -0.95 -3.63065e-07 0.00110096 -0.94375 -4.19988e-07 0.00110108 -0.9375
-4.76949e-07 0.0011012 -0.93125 -5.34606e-07 0.0011013 -0.925 -5.97381e-07 0.00110141 -0.91875 -6.60198e-07
0.00110151 -0.9125 -7.23056e-07 0.00110161 -0.90625 -7.85954e-07 0.00110172 -0.9 -8.48454e-07 0.00110182
-0.89375 -9.11452e-07 0.00110193 -0.8875 -9.74492e-07 0.00110203 -0.88125 -1.03757e-06 0.00110214 -0.875
-1.1007e-06 0.00110224 -0.86875 -1.17127e-06 0.00110235 -0.8625 -1.24939e-06 0.00110246 -0.85625 -1.32757e-06
0.00110258 -0.85 -1.4058e-06 0.00110269 -0.84375 -1.48409e-06 0.0011028 -0.8375 -1.56154e-06 0.00110292
-0.83125 -1.64001e-06 0.00110303 -0.825 -1.71853e-06 0.00110314 -0.81875 -1.7971e-06 0.00110326 -0.8125
-1.87574e-06 0.00110337 -0.80625 -1.95812e-06 0.00110349 -0.8 -2.04072e-06 0.00110361 -0.79375 -2.12338e-06
0.00110373 -0.7875 -2.20611e-06 0.00110385 -0.78125 -2.2889e-06 0.00110397 -0.775 -2.3702e-06 0.00110409
-0.76875 -2.45323e-06 0.00110421 -0.7625 -2.53632e-06 0.00110433 -0.75625 -2.61949e-06 0.00110445 -0.75
-2.70273e-06 0.00110457 -0.74375 -2.7804e-06 0.00110469 -0.7375 -2.84979e-06 0.0011048 -0.73125 -2.91923e-06
0.0011049 -0.725 -2.98874e-06 0.001105 -0.71875 -3.05831e-06 0.00110511 -0.7125 -3.12553e-06 0.00110521
-0.70625 -3.19539e-06 0.00110532 -0.7 -3.26533e-06 0.00110542 -0.69375 -3.33532e-06 0.00110553 -0.6875
-3.40539e-06 0.00110563 -0.68125 -3.46749e-06 0.00110572 -0.675 -3.52893e-06 0.00110578 -0.66875 -3.59043e-06
0.00110584 -0.6625 -3.65198e-06 0.00110589 -0.65625 -3.7136e-06 0.00110595 -0.65 -3.77184e-06 0.00110601
-0.64375 -3.8339e-06 0.00110607 -0.6375 -3.89603e-06 0.00110613 -0.63125 -3.95822e-06 0.00110618 -0.625
-4.02048e-06 0.00110624 -0.61875 -4.08486e-06 0.00110626 -0.6125 -4.15061e-06 0.00110623 -0.60625 -4.21642e-06
0.00110619 -0.6 -4.28232e-06 0.00110616 -0.59375 -4.34828e-06 0.00110613 -0.5875 -4.40941e-06 0.00110609
-0.58125 -4.47613e-06 0.00110606 -0.575 -4.54293e-06 0.00110602 -0.56875 -4.60982e-06 0.00110599 -0.5625
-4.67678e-06 0.00110595 -0.55625 -4.73969e-06 0.00110582 -0.55 -4.80253e-06 0.00110555 -0.54375 -4.86544e-06
0.00110528 -0.5375 -4.92843e-06 0.00110501 -0.53125 -4.99149e-06 0.00110474 -0.525 -5.04741e-06 0.00110447
-0.51875 -5.11182e-06 0.0011042 -0.5125 -5.17633e-06 0.00110393 -0.50625 -5.24094e-06 0.00110366 -0.5
-5.30563e-06 0.00110339 -0.49375 -5.37337e-06 0.00110293 -0.4875 -5.44778e-06 0.0011022 -0.48125 -5.5223e-06
0.00110147 -0.475 -5.59693e-06 0.00110074 -0.46875 -5.67167e-06 0.00110002 -0.4625 -5.73512e-06 0.00109929
-0.45625 -5.81276e-06 0.00109856 -0.45 -5.89056e-06 0.00109783 -0.44375 -5.96852e-06 0.0010971 -0.4375
-6.04663e-06 0.00109638 -0.431249 -6.13512e-06 0.00109526 -0.424999 -6.244e-06 0.00109357 -0.418749 -6.35311e-06
0.00109188 -0.412499 -6.46244e-06 0.0010902 -0.406249 -6.572e-06 0.00108851 -0.399998 -6.66112e-06 0.00108683
-0.393747 -6.77731e-06 0.00108515 -0.387496 -6.89394e-06 0.00108347 -0.381246 -7.01101e-06 0.00108179 -0.374995
-7.12853e-06 0.00108012 -0.368743 -7.27205e-06 0.00107759 -0.36249 -7.44744e-06 0.00107375 -0.356238 -7.62369e-06
0.00106993 -0.349986 -7.80081e-06 0.00106611 -0.343734 -7.97879e-06 0.00106231 -0.337478 -8.11236e-06 0.00105852
-0.331222 -8.30858e-06 0.00105473 -0.324967 -8.50703e-06 0.00105096 -0.318711 -8.7077e-06 0.0010472 -0.312455
-8.91063e-06 0.00104345 -0.306193 -9.1507e-06 0.00103776 -0.299931 -9.4549e-06 0.00102895 -0.293669 -9.76371e-06
0.00102021 -0.287406 -1.00772e-05 0.00101156 -0.281144 -1.03954e-05 0.00100298 -0.274873 -1.05848e-05 0.000994433
-0.268602 -1.09667e-05 0.000985929 -0.262332 -1.1359e-05 0.000977495 -0.256061 -1.17618e-05 0.000969132 -0.24979
-1.21753e-05 0.000960838 -0.243518 -1.27478e-05 0.000947853 -0.237246 -1.3612e-05 0.000927214 -0.230975 -1.44988e-05
0.000907041 -0.224703 -1.54092e-05 0.000887324 -0.218431 -1.63436e-05 0.000868053 -0.215291 -1.68975e-05 0.000858555
-0.21215 -1.77013e-05 0.000846972 -0.20901 -1.85388e-05 0.000835539 -0.20587 -1.94107e-05 0.000824253 -0.202729
-2.03178e-05 0.000813113 -0.19959 -2.05046e-05 0.000802258 -0.196451 -2.14994e-05 0.000791349 -0.193312 -2.25332e-05
0.000780577 -0.190174 -2.36069e-05 0.000769939 -0.187035 -2.47213e-05 0.000759434 -0.183908 -2.56325e-05 0.000746941
-0.180782 -2.68378e-05 0.000731941 -0.177656 -2.80548e-05 0.000717243 -0.17453 -2.9284e-05 0.000702839 -0.171404
-3.05257e-05 0.000688725 -0.168295 -3.0584e-05 0.000675061 -0.165187 -3.19211e-05 0.000661434 -0.162078 -3.31943e-05
0.00064809 -0.15897 -3.44018e-05 0.000635026 -0.155861 -3.55416e-05 0.000622234 -0.152748 -3.65101e-05 0.000606231
-0.149635 -3.75748e-05 0.000587321 -0.146522 -3.86011e-05 0.000569004 -0.143409 -3.95877e-05 0.000551262 -0.140295
-4.05331e-05 0.000534075 -0.137177 -4.04856e-05 0.000517236 -0.134059 -4.1558e-05 0.000500955 -0.130942 -4.26839e-05
0.000485193 -0.127824 -4.38654e-05 0.000469932 -0.124706 -4.51047e-05 0.000455157 -0.121536 -4.6477e-05 0.000439059
-0.118366 -4.86877e-05 0.000436967 -0.115196 -5.13842e-05 0.000434414 -0.112026 -5.45929e-05 0.000431376 -0.108848
-5.83505e-05 0.000427819 -0.105636 -5.83505e-05 0.000427819 -0.102425 -6.63592e-05 0.000422066 -0.0992133 -7.62138e-05
0.000414987 -0.0960018 -8.80714e-05 0.00040647 -0.0927855 -0.000102123 0.000396376 -0.0897501 -0.000102123 0.000396376
-0.0867149 -0.000130608 0.000382102 -0.0836799 -0.000169454 0.000362636 -0.0806452 -0.000222791 0.000335909 -0.0773725
-0.000302929 0.000295752 -1.001 1e-07 0.0537316 -1.00093 8e-08 0.0537316 -1.00085 5.99781e-08
0.0537317 -1.00078 3.99342e-08 0.0537317 -1.00071 1.98684e-08 0.0537318 -1.00064 3.07872e-28 0.0537318
-1.00051 -3.50122e-08 0.0537319 -1.00038 -7.00909e-08 0.053732 -1.00025 -1.05236e-07 0.0537321 -1.00013
-1.40448e-07 0.0537322 -1 -1.75726e-07 0.0537323 -0.99375 -1.91326e-06 0.053737 -0.9875 -3.65203e-06
0.0537416 -0.98125 -5.39319e-06 0.0537461 -0.975 -7.13755e-06 0.0537506 -0.96875 -8.88513e-06 0.053755
-0.9625 -1.06335e-05 0.0537593 -0.95625 -1.23961e-05 0.0537636 -0.95 -1.41711e-05 0.0537679 -0.94375
-1.59585e-05 0.0537721 -0.9375 -1.77558e-05 0.0537763 -0.93125 -1.95556e-05 0.0537804 -0.925 -2.13896e-05
0.0537845 -0.91875 -2.32598e-05 0.0537887 -0.9125 -2.51697e-05 0.0537929 -0.90625 -2.71194e-05 0.0537972
-0.9 -2.91047e-05 0.0538016 -0.89375 -3.11457e-05 0.0538061 -0.8875 -3.32382e-05 0.0538108 -0.88125
-3.53825e-05 0.0538156 -0.875 -3.75766e-05 0.0538206 -0.86875 -3.98122e-05 0.0538255 -0.8625 -4.20993e-05
0.0538305 -0.85625 -4.44254e-05 0.0538356 -0.85 -4.6787e-05 0.0538408 -0.84375 -4.91841e-05 0.0538462
-0.8375 -5.16112e-05 0.0538517 -0.83125 -5.40495e-05 0.0538573 -0.825 -5.64912e-05 0.053863 -0.81875
-5.89364e-05 0.0538688 -0.8125 -6.1394e-05 0.0538747 -0.80625 -6.387e-05 0.0538806 -0.8 -6.63571e-05
0.0538865 -0.79375 -6.88279e-05 0.0538925 -0.7875 -7.12721e-05 0.0538984 -0.78125 -7.36895e-05 0.0539043
-0.775 -7.60743e-05 0.0539103 -0.76875 -7.84158e-05 0.0539161 -0.7625 -8.07059e-05 0.0539219 -0.75625
-8.29443e-05 0.0539275 -0.75 -8.51399e-05 0.0539331 -0.74375 -8.73009e-05 0.0539387 -0.7375 -8.94229e-05
0.0539442 -0.73125 -9.14871e-05 0.0539495 -0.725 -9.34894e-05 0.0539546 -0.71875 -9.54296e-05 0.0539595
-0.7125 -9.73042e-05 0.0539642 -0.70625 -9.91502e-05 0.0539686 -0.7 -0.000100957 0.0539726 -0.69375
-0.000102724 0.0539763 -0.6875 -0.00010445 0.0539797 -0.68125 -0.000106129 0.053983 -0.675 -0.000107813
0.0539862 -0.66875 -0.000109494 0.053989 -0.6625 -0.000111173 0.0539914 -0.65625 -0.000112849 0.0539933
-0.65 -0.000114519 0.0539948 -0.64375 -0.000116217 0.0539957 -0.6375 -0.000117931 0.053996 -0.63125
-0.00011966 0.0539957 -0.625 -0.000121406 0.0539949 -0.61875 -0.000123172 0.053994 -0.6125 -0.000124957
0.0539927 -0.60625 -0.000126747 0.0539907 -0.6 -0.000128541 0.053988 -0.59375 -0.000130339 0.0539844
-0.5875 -0.000132145 0.05398 -0.58125 -0.000133957 0.0539745 -0.575 -0.000135755 0.0539679 -0.56875
-0.000137541 0.0539601 -0.5625 -0.000139312 0.0539514 -0.55625 -0.00014107 0.0539421 -0.55 -0.000142845
0.053932 -0.54375 -0.000144619 0.0539205 -0.5375 -0.000146392 0.0539075 -0.53125 -0.000148166 0.0538929
-0.525 -0.000149953 0.0538767 -0.51875 -0.000151789 0.0538584 -0.5125 -0.000153651 0.0538378 -0.50625
-0.00015554 0.0538151 -0.5 -0.000157454 0.0537905 -0.49375 -0.000159415 0.0537646 -0.4875 -0.00016145
0.0537371 -0.48125 -0.000163529 0.053707 -0.475 -0.000165656 0.0536737 -0.46875 -0.000167831 0.0536372
-0.4625 -0.000170096 0.0535975 -0.456249 -0.000172495 0.0535531 -0.449999 -0.000174978 0.0535041 -0.443749
-0.000177544 0.0534504 -0.437499 -0.000180188 0.0533929 -0.431248 -0.000182941 0.053333 -0.424998 -0.000185914
0.0532693 -0.418747 -0.000189017 0.0532002 -0.412496 -0.000192259 0.0531241 -0.406245 -0.00019564 0.0530409
-0.399993 -0.000199258 0.0529507 -0.393741 -0.000203183 0.0528498 -0.38749 -0.000207306 0.052738 -0.381238
-0.000211629 0.0526152 -0.374985 -0.000216143 0.0524845 -0.36873 -0.000220913 0.0523481 -0.362474 -0.000226162
0.052203 -0.356219 -0.000231635 0.0520462 -0.349965 -0.000237375 0.0518724 -0.343708 -0.000243386 0.0516815
-0.337445 -0.000249975 0.0514737 -0.331184 -0.00025729 0.0512381 -0.324924 -0.000265031 0.0509744 -0.318665
-0.000273204 0.0506826 -0.312397 -0.00028168 0.0503754 -0.306124 -0.000290534 0.0500549 -0.299853 -0.000300841
0.0497128 -0.293583 -0.000311595 0.0493493 -0.287315 -0.000323047 0.0489415 -0.281035 -0.000335259 0.0484868
[...]
POINT_DATA 22390
FIELD attributes 3
age 1 22390 float
0 1.00103e-05 2.00206e-05 3.00309e-05 4.00412e-05 5.00515e-05 0.000150378 0.00025071 0.000351042 0.000451374 0.00055208
0.000764511 0.000976942 0.00118937 0.00140181 0.00161424 0.00192707 0.00223991 0.00255275 0.00286559 0.00317843
0.00349129 0.00380417 0.00411706 0.00442994 0.00474282 0.00505571 0.00536859 0.00568147 0.00599436 0.00630724
0.00662015 0.00693308 0.00724601 0.00755894 0.00787188 0.00818481 0.00849774 0.00881067 0.0091236 0.00943654
0.0097495 0.0100625 0.0103755 0.0106885 0.0110015 0.0113145 0.0116274 0.0119404 0.0122534 0.0125664
0.0128794 0.0131925 0.0135056 0.0138186 0.0141317 0.0144447 0.0147578 0.0150709 0.0153839 0.015697
0.0160101 0.0163232 0.0166364 0.0169495 0.0172626 0.0175758 0.0178889 0.0182021 0.0185152 0.0188284
0.0191416 0.0194548 0.019768 0.0200813 0.0203945 0.0207077 0.021021 0.0213342 0.0216475 0.0219607
0.022274 0.0225873 0.0229007 0.023214 0.0235274 0.0238407 0.0241541 0.0244674 0.0247808 0.0250941
0.0254076 0.025721 0.0260345 0.026348 0.0266615 0.026975 0.0272884 0.0276019 0.0279154 0.0282289
0.0285425 0.0288561 0.0291698 0.0294834 0.0297971 0.0301108 0.0304245 0.0307381 0.0310518 0.0313655
0.0316793 0.0319933 0.0323073 0.0326212 0.0329352 0.0332493 0.0335634 0.0338776 0.0341917 0.0345058
0.0348203 0.0351351 0.0354498 0.0357644 0.0360791 0.0363942 0.0367093 0.0370244 0.0373394 0.0376545
0.0379697 0.0382865 0.0386032 0.0389198 0.0392364 0.0393948 0.0395534 0.0397119 0.0398705 0.040029
0.0401873 0.0403457 0.0405041 0.0406624 0.0408208 0.0409784 0.0411362 0.0412939 0.0414516 0.0416092
0.0417659 0.0419226 0.0420793 0.0422359 0.0423926 0.0425494 0.0427064 0.0428634 0.0430204 0.0431773
0.0433343 0.0434914 0.0436484 0.0438054 0.0439624 0.0441221 0.0442842 0.0444463 0.0446082 0.0447706
0.0449349 0.0450991 0.0452632 0.0454271 0.0455912 0.0457473 0.0459182 0.046107 0.0463174 0.0465735
0 3.7617e-06 7.52353e-06 1.12855e-05 1.50476e-05 1.87687e-05 2.53192e-05 3.18702e-05 3.84215e-05 4.49732e-05
5.15253e-05 0.000373642 0.000695855 0.00101817 0.0013406 0.00166314 0.00198579 0.00230857 0.00263149 0.00295454
0.00327772 0.00360104 0.0039245 0.0042481 0.00457183 0.00489572 0.00521974 0.00554391 0.00586823 0.00619269
0.0065173 0.00684205 0.00716695 0.00749201 0.00781723 0.00814261 0.00846816 0.00879388 0.00911979 0.00944588
0.00977215 0.0100986 0.0104252 0.0107521 0.0110791 0.0114063 0.0117337 0.0120613 0.0123891 0.0127171
0.0130454 0.0133738 0.0137024 0.0140312 0.0143602 0.0146895 0.015019 0.0153487 0.0156786 0.0160088
0.0163392 0.0166699 0.0170008 0.017332 0.0176635 0.0179953 0.0183273 0.0186595 0.0189921 0.0193249
0.0196581 0.0199915 0.0203252 0.0206593 0.0209936 0.0213282 0.0216631 0.0219983 0.0223338 0.0226697
0.0230059 0.0233425 0.0236794 0.0240167 0.0243544 0.0246925 0.0250309 0.0253698 0.0257091 0.0260488
0.0263889 0.0267295 0.0270705 0.027412 0.0277539 0.0280964 0.0284393 0.0287829 0.029127 0.0294718
0.0298171 0.0301631 0.0305096 0.0308569 0.0312049 0.0315537 0.0319034 0.0322539 0.0326053 0.0329577
0.033311 0.0336653 0.0340204 0.0343764 0.0347336 0.0350921 0.0354521 0.0358136 0.0361766 0.036541
0.0369072 0.0372746 0.0376432 0.038013 0.0383846 0.0387592 0.0391378 0.0395178 0.0398993 0.0402823
0.0406696 0.0408635 0.0410578 0.0412525 0.0414477 0.0416446 0.0418414 0.0420384 0.0422356 0.0424331
0.0426324 0.0428311 0.0430302 0.0432296 0.043429 0.0436312 0.0438308 0.04403 0.0442292 0.0444282
0.0446295 0.0447034 0.0447772 0.0448509 0.0449247 0.0449904 0.0451166 0.045243 0.0453695 0.0454961
0.0456236 0.0458157 0.0460079 0.0462003 0.0463931 0.0465872 0.046801 0.0470146 0.0472287 0.0474561
0.0477144 0.0479722 0.0482089 0.0484448 0.0486663 0.0488872 0.0490044 0.0491075 0.0492071 0.0493148
0.049409 0.0496444 0.049908 0.0502082 0.0505573 0.050985 0.0515305 0.0519783 0.0524368 0.0529401
0.0538634 0.0542025 0.0545762 0.0549332 0.0552795 0.0582149 0.0582149 0.0582149 0.0582149 0.0582149
0.0582149 0.0582865 0.0583607 0.0584374 0.0585164 0.0586136 0 3.43759e-06 6.87519e-06 1.03128e-05
1.37504e-05 1.71866e-05 2.4073e-05 3.09595e-05 3.7846e-05 4.47326e-05 5.16192e-05 0.000374249 0.000696977 0.0010198
0.00134272 0.00166576 0.00198892 0.00231223 0.00263568 0.00295928 0.00328301 0.00360689 0.00393092 0.0042551
0.00457944 0.00490394 0.0052286 0.00555341 0.00587838 0.00620351 0.00652879 0.00685423 0.00717984 0.00750561
0.00783154 0.00815764 0.00848391 0.00881035 0.00913697 0.00946377 0.00979076 0.0101179 0.0104453 0.0107728
0.0111006 0.0114285 0.0117567 0.012085 0.0124135 0.0127421 0.013071 0.0134001 0.0137294 0.0140589
0.0143886 0.0147184 0.0150485 0.0153788 0.0157094 0.0160401 0.0163711 0.0167023 0.0170338 0.0173655
0.0176975 0.0180297 0.0183622 0.018695 0.019028 0.0193613 0.0196949 0.0200287 0.0203629 0.0206973
0.021032 0.021367 0.0217024 0.022038 0.0223741 0.0227105 0.0230472 0.0233842 0.0237217 0.0240595
0.0243978 0.0247364 0.0250756 0.0254152 0.0257554 0.026096 0.0264371 0.0267787 0.0271208 0.0274635
0.0278067 0.0281507 0.0284953 0.0288408 0.0291871 0.0295342 0.0298821 0.0302308 0.0305804 0.0309309
0.0312824 0.0316352 0.0319894 0.0323453 0.0327028 0.0330615 0.0334218 0.0337837 0.0341474 0.0345127
0.0348797 0.0352496 0.0356225 0.0359997 0.0363798 0.0367623 0.0371495 0.0375387 0.0379317 0.0383284
0.0387287 0.0391395 0.0392503 0.0393614 0.0394729 0.0395845 0.0396668 0.0397713 0.0398761 0.0399811
0.0400864 0.0401931 0.0404091 0.0406264 0.0408448 0.0410644 0.0412937 0.0415186 0.0417437 0.0419688
0.042194 0.0424308 0.0425539 0.0426812 0.0428105 0.0429351 0.0430371 0.0431503 0.0432635 0.0433768
0.04349 0.043607 0.0438508 0.0441197 0.0444494 0.0447961 0.0450931 0.0452222 0.0453345 0.0454471
0.0455629 0.0456666 0.0459134 0.0461739 0.0464526 0.0467917 0.0471264 0.0477558 0.0481349 0.048515
0.0488924 0.0492079 0.0494457 0.0496973 0.0499639 0.0502466 0.0505647 0.05141 0.0518908 0.0524269
0.0530419 0.0554865 0.056152 0.0565262 0.0568735 0.0572748 0.0598545 0 3.35364e-06 6.7073e-06
1.0061e-05 1.34147e-05 1.67675e-05 2.37486e-05 3.07297e-05 3.7711e-05 4.46923e-05 5.16736e-05 0.000374646 0.000697726
0.00102091 0.0013442 0.0016676 0.00199111 0.00231477 0.00263858 0.00296253 0.00328663 0.00361087 0.00393527
0.00425983 0.00458454 0.0049094 0.00523441 0.00555958 0.00588491 0.00621038 0.00653601 0.0068618 0.00718774
0.00751385 0.00784012 0.00816655 0.00849314 0.0088199 0.00914685 0.00947397 0.00980126 0.0101287 0.0104564
0.0107842 0.0111123 0.0114405 0.0117689 0.0120975 0.0124262 0.0127552 0.0130844 0.0134137 0.0137432
0.014073 0.0144029 0.0147331 0.0150635 0.015394 0.0157249 0.0160559 0.0163872 0.0167187 0.0170505
0.0173825 0.0177148 0.0180474 0.0183802 0.0187133 0.0190467 0.0193804 0.0197144 0.0200487 0.0203833
0.0207182 0.0210535 0.021389 0.0217249 0.0220613 0.022398 0.0227351 0.0230726 0.0234105 0.0237488
0.0240877 0.024427 0.0247669 0.0251072 0.0254482 0.0257898 0.026132 0.0264749 0.0268183 0.0271626
0.0275076 0.0278534 0.0282001 0.0285476 0.0288964 0.0292462 0.0295972 0.0299493 0.0303027 0.0306577
0.0310143 0.0313725 0.0317325 0.0320946 0.0324592 0.0328261 0.0331955 0.0333796 0.0334174 0.0334552
0.0334931 0.0335309 0.0335688 0.0339445 0.0343242 0.0347081 0.035096 0.03549 0.0358895 0.0362954
0.036709 0.0371302 0.037566 0.0377889 0.0380139 0.0382411 0.038471 0.038709 0.0389484 0.0391924
0.0394402 0.0396905 0.0399572 0.0400164 0.0400759 0.0401357 0.0401957 0.0402447 0.0404472 0.0406519
0.0408591 0.0410686 0.0413004 0.0415786 0.0418578 0.0421377 0.0424177 0.0427485 0.042814 0.0428759
0.0429375 0.043003 0.0430638 0.0434486 0.0438588 0.0443235 0.0448529 0.0454361 0.0457224 0.0460199
0.0463268 0.046642 0.0469931 0.047648 0.0480458 0.0483833 0.0487545 0.0510934 0 3.21239e-06
6.4248e-06 9.63722e-06 1.28496e-05 1.60605e-05 2.31878e-05 3.03151e-05 3.74425e-05 4.45699e-05 5.16974e-05 0.000374817
0.000698043 0.00102138 0.00134481 0.00166836 0.00199204 0.00231585 0.00263981 0.00296392 0.00328818 0.00361258
0.00393714 0.00426185 0.00458671 0.00491172 0.00523689 0.00556221 0.00588769 0.00621331 0.0065391 0.00686503
0.00719113 0.0075174 0.00784382 0.00817041 0.00849716 0.00882408 0.00915119 0.00947847 0.00980592 0.0101336
0.0104614 0.0107894 0.0111176 0.0114459 0.0117745 0.0121033 0.0124322 0.0127613 0.0130907 0.0134202
0.0137499 0.0140799 0.01441 0.0147404 0.015071 0.0154018 0.0157328 0.0160641 0.0163957 0.0167274
0.0170595 0.0173918 0.0177244 0.0180573 0.0183905 0.018724 0.0190578 0.0193919 0.0197263 0.020061
0.0203961 0.0207316 0.0210674 0.0214037 0.0217402 0.0220772 0.0224146 0.0227525 0.0230909 0.0234297
0.0237692 0.0241092 0.0244498 0.0247909 0.0251327 0.0254751 0.0258183 0.0261622 0.026507 0.0268525
0.0271991 0.0275468 0.0278955 0.0282453 0.0285962 0.0289483 0.0293021 0.0296574 0.0300143 0.030373
0.0307341 0.0310976 0.0314636 0.0318321 0.032203 0.0325772 0.0329552 0.0333373 0.0337243 0.0341155
0.0345148 0.0349224 0.0353386 0.0357654 0.0359833 0.0362042 0.0364282 0.0366553 0.0368878 0.0371243
0.037367 0.0376154 0.0378695 0.0379348 0.0379754 0.0380161 0.038057 0.0380981 0.0381396 0.0384088
0.0386872 0.0389749 0.0392723 0.0396019 0.039935 0.0402833 0.0406457 0.0410264 0.0414933 0.0416594
0.0418207 0.0419924 0.0421826 0.042331 0.0427774 0.0432821 0.0438359 0.0444566 0.0469633 0
3.11603e-06 6.23207e-06 9.34812e-06 1.24642e-05 1.55789e-05 2.2803e-05 3.00271e-05 3.72513e-05 4.44756e-05 5.16999e-05
0.000374835 0.000698077 0.00102143 0.0013449 0.00166849 0.0019922 0.00231607 0.00264008 0.00296424 0.00328854
0.00361299 0.00393759 0.00426234 0.00458724 0.0049123 0.00523751 0.00556287 0.00588839 0.00621406 0.00653988
0.00686585 0.00719198 0.00751827 0.00784473 0.00817134 0.00849812 0.00882507 0.0091522 0.00947951 0.009807
0.0101347 0.0104625 0.0107906 0.0111188 0.0114472 0.0117758 0.0121046 0.0124336 0.0127628 0.0130922
0.0134218 0.0137517 0.0140817 0.014412 0.0147425 0.0150732 0.0154041 0.0157353 0.0160668 0.0163985
0.0167305 0.0170627 0.0173953 0.0177281 0.0180613 0.0183947 0.0187285 0.0190626 0.019397 0.0197317
0.0200669 0.0204024 0.0207383 0.0210746 0.0214113 0.0217484 0.0220859 0.022424 0.0227626 0.0231016
0.0234412 0.0237815 0.0241224 0.0244639 0.0248061 0.0251489 0.0254926 0.025837 0.0261824 0.0265286
0.0268758 0.0272242 0.0275739 0.0279248 0.0282768 0.0286303 0.0289856 0.0293426 0.0297015 0.0300623
0.0304256 0.0307919 0.0311613 0.0315335 0.0319087 0.0322883 0.032673 0.0330629 0.0334582 0.0338596
0.0342711 0.0346948 0.0351314 0.0355837 0.0360533 0.0362974 0.0365477 0.0368045 0.0370683 0.0373398
0.0376201 0.0379138 0.0382221 0.0385464 0.038889 0.0392532 0.0396712 0.0401745 0.0407568 0.0413914
0.041775 0.0421972 0.0426759 0.0431786 0.0452312 0 3.02704e-06 6.05409e-06 9.08115e-06 1.21082e-05
1.51341e-05 2.24465e-05 2.97589e-05 3.70714e-05 4.4384e-05 5.16966e-05 0.000374811 0.000698036 0.00102138 0.00134485
0.00166845 0.00199217 0.00231603 0.00264003 0.00296417 0.00328846 0.00361289 0.00393747 0.0042622 0.00458707
0.0049121 0.00523727 0.00556259 0.00588806 0.00621369 0.00653947 0.0068654 0.00719149 0.00751774 0.00784416
0.00817074 0.00849748 0.00882441 0.00915151 0.0094788 0.00980626 0.0101339 0.0104617 0.0107898 0.011118
0.0114464 0.011775 0.0121039 0.0124329 0.0127621 0.0130915 0.0134212 0.0137511 0.0140812 0.0144115
0.014742 0.0150728 0.0154039 0.0157352 0.0160667 0.0163986 0.0167306 0.017063 0.0173957 0.0177287
0.018062 0.0183956 0.0187296 0.0190639 0.0193985 0.0197335 0.0200689 0.0204046 0.0207408 0.0210773
0.0214143 0.0217517 0.0220896 0.0224281 0.022767 0.0231064 0.0234464 0.023787 0.0241283 0.0244703
0.0248129 0.0251563 0.0255005 0.0258456 0.0261916 0.0265385 0.0268864 0.0272354 0.0275858 0.0279374
0.0282903 0.0286447 0.029001 0.0293593 0.0297195 0.0300816 0.0304464 0.0308141 0.0311848 0.0315587
0.0319357 0.0323178 0.0327056 0.0330992 0.0334989 0.0339047 0.0343213 0.03475 0.0351948 0.0356542
0.0361288 0.0363795 0.0366369 0.0369016 0.0371753 0.0374584 0.037759 0.038075 0.0384076 0.0387587
0.0391319 0.0395917 0.04013 0.0408138 0.0417363 0.0433332 0 2.94511e-06 5.89024e-06 8.83537e-06
1.17805e-05 1.47243e-05 2.21178e-05 2.95114e-05 3.6905e-05 4.42987e-05 5.16925e-05 0.000374781 0.000697977 0.00102129
0.00134473 0.00166829 0.00199198 0.00231581 0.00263978 0.00296391 0.00328818 0.00361259 0.00393716 0.00426187
0.00458674 0.00491176 0.00523694 0.00556226 0.00588774 0.00621337 0.00653914 0.00686507 0.00719117 0.00751742
0.00784384 0.00817042 0.00849717 0.00882409 0.0091512 0.00947849 0.00980596 0.0101336 0.0104615 0.0107895
0.0111177 0.0114462 0.0117748 0.0121036 0.0124327 0.0127619 0.0130914 0.013421 0.0137509 0.014081
0.0144114 0.014742 0.0150728 0.0154039 0.0157352 0.0160668 0.0163987 0.0167308 0.0170632 0.017396
0.017729 0.0180623 0.018396 0.01873 0.0190643 0.019399 0.019734 0.0200693 0.0204051 0.0207413
0.0210778 0.0214148 0.0217522 0.02209 0.0224284 0.0227673 0.0231066 0.0234465 0.023787 0.0241282
0.02447 0.0248124 0.0251555 0.0254994 0.0258441 0.0261896 0.026536 0.0268833 0.0272318 0.0275814
0.0279321 0.028284 0.0286373 0.0289921 0.0293487 0.029707 0.0300669 0.0304291 0.0307939 0.0311613
0.0315313 0.031904 0.0322802 0.0326607 0.0330458 0.0334355 0.0338302 0.0342306 0.034641 0.0350607
0.03549 0.0359306 0.0360034 0.0360766 0.0361503 0.0362245 0.0362783 0.0364415 0.0366071 0.0367751
0.0369455 0.0371195 0.0373735 0.0376357 0.0379067 0.0381868 0.0384853 0.0387925 0.0391122 0.0394454
0.0397933 0.0402031 0.0405808 0.0410098 0.0415323 0.042178 0.0428729 0.0433435 0.0438668 0.0444381
0.0451259 0.0469622 0 2.90787e-06 5.81574e-06 8.72363e-06 1.16315e-05 1.45378e-05 2.19681e-05 2.93985e-05
3.68289e-05 4.42594e-05 5.169e-05 0.000374765 0.000697946 0.00102123 0.00134463 0.00166816 0.00199181 0.00231561
0.00263955 0.00296363 0.00328786 0.00361224 0.00393677 0.00426145 0.00458627 0.00491125 0.00523638 0.00556167
0.0058871 0.0062127 0.00653844 0.00686434 0.0071904 0.00751663 0.00784302 0.00816958 0.0084963 0.00882321
0.0091503 0.00947757 0.00980502 0.0101327 0.0104605 0.0107885 0.0111167 0.0114452 0.0117738 0.0121026
0.0124316 0.0127608 0.0130903 0.0134199 0.0137498 0.0140799 0.0144102 0.0147408 0.0150716 0.0154026
0.0157339 0.0160655 0.0163973 0.0167294 0.0170618 0.0173944 0.0177274 0.0180607 0.0183943 0.0187281
0.0190624 0.0193969 0.0197318 0.020067 0.0204026 0.0207386 0.021075 0.0214117 0.0217488 0.0220864
0.0224244 0.0227629 0.0231018 0.0234412 0.0237813 0.0241219 0.024463 0.0248048 0.025147 0.02549
0.0258337 0.026178 0.0265232 0.0268691 0.027216 0.027564 0.0279129 0.0282627 0.0286135 0.0289655
0.0293188 0.0296734 0.0300294 0.0303872 0.0307471 0.0311091 0.031473 0.0318388 0.032207 0.0325779
0.0329516 0.033328 0.0337083 0.0340935 0.0344851 0.0348829 0.0352865 0.0356963 0.0359052 0.0361162
0.0363293 0.0365445 0.0367631 0.036985 0.0372097 0.0374372 0.0376677 0.0379047 0.0381444 0.0383897
0.0386392 0.0388925 0.039157 0.0392173 0.039278 0.039339 0.0394003 0.0394476 0.0396599 0.0398757
0.0400951 0.0403181 0.0405623 0.0408772 0.041198 0.0415238 0.0418564 0.0422488 0.0423509 0.0424465
0.0425444 0.0426485 0.0427453 0.0432447 0.043788 0.0444239 0.0451642 0.0459561 0.0462663 0.0465929
0.0469345 0.0472889 0.047685 0.0482352 0.0486126 0.0489036 0.0492459 0.0511907 0 2.9251e-06
5.8502e-06 8.77532e-06 1.17004e-05 1.46243e-05 2.20339e-05 2.94435e-05 3.68533e-05 4.42631e-05 5.16729e-05 0.000374639
0.000697713 0.0010209 0.00134419 0.00166759 0.00199111 0.00231478 0.0026386 0.00296257 0.00328669 0.00361095
0.00393537 0.00425994 0.00458466 0.00490953 0.00523456 0.00555974 0.00588508 0.00621057 0.00653622 0.00686202
0.00718798 0.00751411 0.00784041 0.00816688 0.00849351 0.00882032 0.00914732 0.0094745 0.00980187 0.0101294
0.0104572 0.0107851 0.0111132 0.0114416 0.0117701 0.0120988 0.0124277 0.0127569 0.0130862 0.0134158
0.0137455 0.0140755 0.0144058 0.0147362 0.0150669 0.0153979 0.0157291 0.0160605 0.0163922 0.0167242
0.0170565 0.017389 0.0177219 0.018055 0.0183884 0.0187221 0.0190561 0.0193905 0.0197251 0.0200601
0.0203954 0.0207311 0.0210671 0.0214035 0.0217402 0.0220774 0.0224149 0.0227528 0.0230912 0.02343
0.0237693 0.0241091 0.0244494 0.0247902 0.0251315 0.0254733 0.0258158 0.0261588 0.0265024 0.0268467
0.0271918 0.0275376 0.0278843 0.0282317 0.0285798 0.0289287 0.0292786 0.0296296 0.0299816 0.0303348
0.0306894 0.0310454 0.0314029 0.0317617 0.0321219 0.0324836 0.032847 0.0332123 0.03358 0.0339502
0.0343235 0.0346999 0.0350794 0.035462 0.0358476 0.0362363 0.0366279 0.037024 0.0374277 0.0376332
0.03784 0.0380481 0.0382574 0.0384699 0.0386843 0.0388999 0.0391172 0.0393362 0.0395606 0.0397851
0.0400118 0.0402406 0.0404708 0.0407098 0.040941 0.0411731 0.0414061 0.0416399 0.0418856 0.0419049
0.0419242 0.0419435 0.0419629 0.0419811 0.0421966 0.0424131 0.0426305 0.0428485 0.0430849 0.0433356
0.0436211 0.0439721 0.0443072 0.0446032 0.0446947 0.0447792 0.0448656 0.0449538 0.0450353 0.0453025
0.0455888 0.0459386 0.0463879 0.0467593 0.0472515 0.0476399 0.0480424 0.0484549 0.0487854 0.0490087
0.0492419 0.0494855 0.0497354 0.0499709 0.0504343 0.0506684 0.0508555 0.0510539 0.0512783 0.0514088
0.0515376 0.0516647 0.0517933 0.0519318 0.0526237 0.0529104 0.0532262 0.0535744 0.0541895 0.0543102
0.0544329 0.0545578 0.0546856 0.0548283 0.0554865 0.055845 0.0562618 0.0567596 0.0591439 0
3.04858e-06 6.09716e-06 9.14576e-06 1.21944e-05 1.52415e-05 2.2521e-05 2.98005e-05 3.70801e-05 4.43598e-05 5.16395e-05
0.000374397 0.000697261 0.00102023 0.00134331 0.0016665 0.0019898 0.00231325 0.00263685 0.0029606 0.00328449
0.00360853 0.00393272 0.00425707 0.00458156 0.00490622 0.00523102 0.00555598 0.00588109 0.00620636 0.00653179
0.00685738 0.00718313 0.00750905 0.00783514 0.0081614 0.00848783 0.00881444 0.00914124 0.00946823 0.0097954
0.0101228 0.0104503 0.0107781 0.011106 0.0114341 0.0117625 0.012091 0.0124198 0.0127487 0.0130779
0.0134073 0.0137369 0.0140668 0.0143968 0.0147271 0.0150577 0.0153885 0.0157195 0.0160508 0.0163824
0.0167142 0.0170463 0.0173787 0.0177113 0.0180443 0.0183775 0.018711 0.0190447 0.0193788 0.0197132
0.0200479 0.0203829 0.0207182 0.0210539 0.0213898 0.0217261 0.0220628 0.0223999 0.0227373 0.0230751
0.0234133 0.0237519 0.0240909 0.0244304 0.0247703 0.0251107 0.0254515 0.0257929 0.0261347 0.0264771
0.0267592 0.0270417 0.0273246 0.0276079 0.0277873 0.0278694 0.0279514 0.0280335 0.0281157 0.0281978
0.0285437 0.0288902 0.0292375 0.0295855 0.0299343 0.0302839 0.0306343 0.0309856 0.0313378 0.0316911
0.0320452 0.0324004 0.0327568 0.0331142 0.0334729 0.0338329 0.0341942 0.034557 0.0349212 0.0352871
0.0356545 0.0360234 0.0363941 0.0367665 0.0371415 0.0375184 0.0378978 0.0382794 0.0386635 0.0390523
0.03944 0.0398316 0.0402266 0.0406239 0.0410289 0.0412283 0.0414279 0.0416278 0.0418279 0.0420304
0.0420666 0.0421027 0.0421389 0.042175 0.0422084 0.042375 0.0425416 0.0427083 0.042875 0.043044
0.0432489 0.0434538 0.0436587 0.0438636 0.0440738 0.0442822 0.0444897 0.0446963 0.0449019 0.0451087
0.0452094 0.0453099 0.0454102 0.0455101 0.0456102 0.0456546 0.045699 0.0457432 0.0457873 0.045831
0.0458839 0.0459366 0.0459893 0.0460418 0.0460943 0.046187 0.0462793 0.0463707 0.0464611 0.04655
0.0465945 0.0466387 0.0466826 0.0467261 0.046768 0.04678 0.046792 0.0468039 0.0468157 0.0468297
0.0468591 0.046888 0.0469165 0.0469446 0.0469706 0.0470083 0.047043 0.0470772 0.047111 0.0471454
0.047188 0.0472261 0.0472642 0.0473022 0.0473422 0.0473823 0.0474223 0.0474626 0.0475033 0.0475458
0.0475466 0.0475475 0.0475483 0.0475491 0.0475499 0.0475929 0.0476363 0.0476801 0.0477244 0.0477701
0.0478014 0.0478327 0.0478641 0.0478955 0.0479267 0.0479403 0.0479541 0.0479684 0.0479833 0.0479973
0.0480282 0.0480591 0.04809 0.0481211 0.0481445 0.0481596 0.0481748 0.0481901 0.0482053 0.0482205
0.0482491 0.0482778 0.0483066 0.0483354 0.0483645 0.0483804 0.0483963 0.0484122 0.048428 0.0484439
0.0484887 0.0485337 0.0485789 0.0486243 0.0486693 0.0487072 0.0487451 0.048783 0.0488209 0.0488599
0.0488658 0.0488718 0.0488777 0.0488836 0.0488896 0.0489354 0.0489812 0.049027 0.0490727 0.0491183
0.0491624 0.0492064 0.0492503 0.0492942 0.0493378 0.049342 0.0493462 0.0493505 0.0493547 0.0493589