# vtk DataFile Version 2.0
tracks
ASCII
DATASET POLYDATA
POINTS 16965 float
-1.001 1e-07 0.0011 -1.0008 9.70087e-08 0.00110001 -1.0006 9.40174e-08 0.00110002 -1.0004 9.10261e-08
0.00110003 -1.0002 8.80346e-08 0.00110004 -1 8.50431e-08 0.00110004 -0.998863 6.80345e-08 0.00110009
-0.997726 5.22208e-08 0.00110014 -0.996589 3.64048e-08 0.00110019 -0.995452 2.05867e-08 0.00110023 -0.993972
1.29737e-28 0.00110029 -0.988928 -7.0196e-08 0.0011005 -0.983883 -1.40445e-07 0.0011007 -0.978839 -2.10748e-07
0.00110091 -0.973794 -2.81104e-07 0.00110112 -0.96875 -3.51514e-07 0.00110132 -0.9625 -4.38567e-07 0.00110158
-0.95625 -5.25917e-07 0.00110183 -0.95 -6.13342e-07 0.00110209 -0.94375 -7.00841e-07 0.00110234 -0.9375
-7.88416e-07 0.0011026 -0.93125 -8.65992e-07 0.00110282 -0.925 -9.4066e-07 0.00110304 -0.91875 -1.01539e-06
0.00110325 -0.9125 -1.09018e-06 0.00110346 -0.90625 -1.16503e-06 0.00110367 -0.9 -1.23921e-06 0.00110388
-0.89375 -1.31418e-06 0.0011041 -0.8875 -1.38922e-06 0.00110431 -0.88125 -1.46431e-06 0.00110452 -0.875
-1.53946e-06 0.00110473 -0.86875 -1.61995e-06 0.00110493 -0.8625 -1.71224e-06 0.00110512 -0.85625 -1.80461e-06
0.00110531 -0.85 -1.89705e-06 0.00110549 -0.84375 -1.98956e-06 0.00110568 -0.8375 -2.08089e-06 0.00110587
-0.83125 -2.17361e-06 0.00110606 -0.825 -2.26641e-06 0.00110625 -0.81875 -2.35928e-06 0.00110644 -0.8125
-2.45223e-06 0.00110662 -0.80625 -2.55538e-06 0.0011068 -0.8 -2.66505e-06 0.00110696 -0.79375 -2.77479e-06
0.00110712 -0.7875 -2.88463e-06 0.00110728 -0.78125 -2.99456e-06 0.00110744 -0.775 -3.1026e-06 0.0011076
-0.76875 -3.21272e-06 0.00110775 -0.7625 -3.32292e-06 0.00110791 -0.75625 -3.43322e-06 0.00110807 -0.75
-3.5436e-06 0.00110823 -0.74375 -3.65298e-06 0.00110837 -0.7375 -3.75913e-06 0.00110848 -0.73125 -3.86537e-06
0.00110859 -0.725 -3.97168e-06 0.0011087 -0.71875 -4.07808e-06 0.00110881 -0.7125 -4.18181e-06 0.00110893
-0.70625 -4.28849e-06 0.00110904 -0.7 -4.39525e-06 0.00110915 -0.69375 -4.5021e-06 0.00110926 -0.6875
-4.60903e-06 0.00110937 -0.68125 -4.71507e-06 0.00110946 -0.675 -4.82687e-06 0.00110951 -0.66875 -4.93876e-06
0.00110957 -0.6625 -5.05075e-06 0.00110962 -0.65625 -5.16283e-06 0.00110968 -0.65 -5.271e-06 0.00110973
-0.64375 -5.38383e-06 0.00110978 -0.6375 -5.49676e-06 0.00110984 -0.63125 -5.6098e-06 0.00110989 -0.625
-5.72294e-06 0.00110995 -0.61875 -5.84039e-06 0.00110994 -0.6125 -5.95553e-06 0.00110986 -0.60625 -6.07077e-06
0.00110977 -0.6 -6.18613e-06 0.00110969 -0.59375 -6.30161e-06 0.0011096 -0.5875 -6.41057e-06 0.00110952
-0.58125 -6.52755e-06 0.00110943 -0.575 -6.64468e-06 0.00110935 -0.56875 -6.76194e-06 0.00110926 -0.5625
-6.87934e-06 0.00110918 -0.55625 -6.99028e-06 0.00110899 -0.55 -7.10444e-06 0.00110866 -0.54375 -7.21874e-06
0.00110834 -0.5375 -7.33317e-06 0.00110801 -0.53125 -7.44775e-06 0.00110769 -0.525 -7.55137e-06 0.00110737
-0.51875 -7.66839e-06 0.00110704 -0.5125 -7.78558e-06 0.00110672 -0.50625 -7.90295e-06 0.00110639 -0.5
-8.0205e-06 0.00110607 -0.49375 -8.14427e-06 0.00110557 -0.4875 -8.28063e-06 0.00110484 -0.48125 -8.41719e-06
0.00110411 -0.475 -8.55398e-06 0.00110338 -0.46875 -8.69098e-06 0.00110265 -0.4625 -8.80948e-06 0.00110191
-0.45625 -8.95158e-06 0.00110118 -0.45 -9.09398e-06 0.00110045 -0.44375 -9.23669e-06 0.00109972 -0.4375
-9.3797e-06 0.00109899 -0.431249 -9.54207e-06 0.0010979 -0.424999 -9.7381e-06 0.00109627 -0.418749 -9.93458e-06
0.00109464 -0.412499 -1.01315e-05 0.00109301 -0.406249 -1.03289e-05 0.00109139 -0.399998 -1.04917e-05 0.00108976
-0.393747 -1.07002e-05 0.00108813 -0.387496 -1.09094e-05 0.00108651 -0.381246 -1.11194e-05 0.00108489 -0.374995
-1.13302e-05 0.00108327 -0.368743 -1.15772e-05 0.00108082 -0.36249 -1.18687e-05 0.00107712 -0.356238 -1.21615e-05
0.00107345 -0.349986 -1.24556e-05 0.00106978 -0.343734 -1.2751e-05 0.00106613 -0.337478 -1.29728e-05 0.00106248
-0.331222 -1.32967e-05 0.00105883 -0.324967 -1.36236e-05 0.00105519 -0.318711 -1.39536e-05 0.00105157 -0.312455
-1.42866e-05 0.00104795 -0.306193 -1.46754e-05 0.00104245 -0.299931 -1.51731e-05 0.0010333 -0.293669 -1.56764e-05
0.00102423 -0.287406 -1.61854e-05 0.00101525 -0.281144 -1.67003e-05 0.00100635 -0.274873 -1.7017e-05 0.000997459
-0.268602 -1.76224e-05 0.000988595 -0.262332 -1.82405e-05 0.000979806 -0.256061 -1.88716e-05 0.000971093 -0.24979
-1.95159e-05 0.000962454 -0.243518 -2.03692e-05 0.000948696 -0.237246 -2.1747e-05 0.000925473 -0.230975 -2.31473e-05
0.000902838 -0.224703 -2.45709e-05 0.000880775 -0.218431 -2.60189e-05 0.000859271 -0.215291 -2.68531e-05 0.000848719
-0.212151 -2.79372e-05 0.000836396 -0.20901 -2.90556e-05 0.000824244 -0.20587 -3.02089e-05 0.00081226 -0.202729
-3.13979e-05 0.000800441 -0.19959 -3.17063e-05 0.000788977 -0.196452 -3.30334e-05 0.000777518 -0.193313 -3.44031e-05
0.000766218 -0.190174 -3.58163e-05 0.000755075 -0.187035 -3.7274e-05 0.000744084 -0.183909 -3.85408e-05 0.000731322
-0.180782 -4.01687e-05 0.000716196 -0.177656 -4.1819e-05 0.000701386 -0.17453 -4.34922e-05 0.000686884 -0.171404
-4.5189e-05 0.000672685 -0.168295 -4.52894e-05 0.000658881 -0.165187 -4.72284e-05 0.000645051 -0.162078 -4.91171e-05
0.000631515 -0.15897 -5.09541e-05 0.000618268 -0.155861 -5.27377e-05 0.000605304 -0.152748 -5.43046e-05 0.000590033
-0.149635 -5.62105e-05 0.000572949 -0.146522 -5.81043e-05 0.000556368 -0.143408 -5.99853e-05 0.000540277 -0.140295
-6.18534e-05 0.000524659 -0.137177 -6.18713e-05 0.000509293 -0.134059 -6.40736e-05 0.000494432 -0.130941 -6.63828e-05
0.000480013 -0.127823 -6.88038e-05 0.000466022 -0.124705 -7.13416e-05 0.000452446 -0.121535 -7.40479e-05 0.000438631
-0.118365 -7.81722e-05 0.00043595 -0.115195 -8.29501e-05 0.000432844 -0.112024 -8.84205e-05 0.000429287 -0.108848
-9.46368e-05 0.000425246 -0.105636 -9.46368e-05 0.000425246 -0.102424 -0.000105751 0.000419432 -0.0992119 -0.000118972
0.000412516 -0.0959999 -0.000134476 0.000404404 -0.0927824 -0.000152491 0.00039498 -0.0897404 -0.000152491 0.00039498
-0.0866987 -0.000187449 0.000378259 -0.0836572 -0.000234323 0.000355839 -0.0806161 -0.00029783 0.000325463 -0.077342
-0.00039207 0.000280387 -1.001 1e-07 0.0537316 -1.00095 8e-08 0.0537317 -1.00091 5.99839e-08
0.0537317 -1.00086 3.99517e-08 0.0537318 -1.00081 1.99034e-08 0.0537319 -1.00077 3.08602e-28 0.053732
-1.00061 -6.59175e-08 0.0537322 -1.00046 -1.32009e-07 0.0537325 -1.00031 -1.98274e-07 0.0537327 -1.00015
-2.64713e-07 0.053733 -1 -3.31325e-07 0.0537332 -0.99375 -3.05314e-06 0.0537436 -0.9875 -5.73924e-06
0.0537539 -0.98125 -8.38033e-06 0.0537641 -0.975 -1.09702e-05 0.0537741 -0.96875 -1.35089e-05 0.0537841
-0.9625 -1.59922e-05 0.053794 -0.95625 -1.84289e-05 0.0538036 -0.95 -2.08159e-05 0.0538129 -0.94375
-2.31532e-05 0.053822 -0.9375 -2.54385e-05 0.0538309 -0.93125 -2.76627e-05 0.0538396 -0.925 -2.98751e-05
0.0538483 -0.91875 -3.20772e-05 0.0538568 -0.9125 -3.4273e-05 0.0538651 -0.90625 -3.64624e-05 0.0538732
-0.9 -3.86397e-05 0.0538811 -0.89375 -4.08587e-05 0.0538889 -0.8875 -4.31144e-05 0.0538965 -0.88125
-4.54068e-05 0.0539041 -0.875 -4.77356e-05 0.0539115 -0.86875 -5.00944e-05 0.0539188 -0.8625 -5.25285e-05
0.0539261 -0.85625 -5.50207e-05 0.0539332 -0.85 -5.7564e-05 0.0539403 -0.84375 -6.01584e-05 0.0539472
-0.8375 -6.27976e-05 0.053954 -0.83125 -6.54767e-05 0.0539607 -0.825 -6.81894e-05 0.0539672 -0.81875
-7.09354e-05 0.0539736 -0.8125 -7.3727e-05 0.0539799 -0.80625 -7.65792e-05 0.0539861 -0.8 -7.94736e-05
0.0539923 -0.79375 -8.23857e-05 0.0539982 -0.7875 -8.53041e-05 0.054004 -0.78125 -8.82289e-05 0.0540096
-0.775 -9.11555e-05 0.0540151 -0.76875 -9.40703e-05 0.0540202 -0.7625 -9.69697e-05 0.0540252 -0.75625
-9.98537e-05 0.0540299 -0.75 -0.000102728 0.0540344 -0.74375 -0.000105603 0.0540388 -0.7375 -0.000108459
0.054043 -0.73125 -0.000111295 0.054047 -0.725 -0.000114114 0.0540507 -0.71875 -0.000116914 0.0540542
-0.7125 -0.000119701 0.0540574 -0.70625 -0.000122501 0.0540603 -0.7 -0.000125309 0.0540629 -0.69375
-0.000128126 0.0540652 -0.6875 -0.000130947 0.0540673 -0.68125 -0.000133774 0.0540692 -0.675 -0.000136639
0.0540709 -0.66875 -0.000139537 0.0540723 -0.6625 -0.000142467 0.0540733 -0.65625 -0.00014543 0.0540739
-0.65 -0.000148432 0.0540741 -0.64375 -0.000151467 0.0540737 -0.6375 -0.000154528 0.0540727 -0.63125
-0.000157615 0.0540711 -0.625 -0.00016073 0.054069 -0.61875 -0.00016389 0.0540665 -0.6125 -0.000167049
0.0540636 -0.60625 -0.000170195 0.0540599 -0.6 -0.000173331 0.0540554 -0.59375 -0.000176457 0.05405
-0.5875 -0.000179588 0.0540437 -0.58125 -0.000182724 0.0540364 -0.575 -0.000185837 0.054028 -0.56875
-0.00018893 0.0540185 -0.5625 -0.000191996 0.054008 -0.55625 -0.000195048 0.0539969 -0.55 -0.000198145
0.053985 -0.54375 -0.000201254 0.0539718 -0.5375 -0.000204375 0.0539573 -0.53125 -0.000207506 0.0539413
-0.525 -0.000210673 0.053924 -0.51875 -0.000213918 0.0539046 -0.5125 -0.000217208 0.0538833 -0.50625
-0.000220542 0.0538599 -0.5 -0.000223923 0.0538349 -0.49375 -0.000227392 0.0538088 -0.4875 -0.000230993
0.0537811 -0.48125 -0.000234674 0.0537511 -0.475 -0.000238438 0.0537182 -0.46875 -0.000242287 0.0536823
-0.4625 -0.000246285 0.0536435 -0.456249 -0.000250506 0.0536003 -0.449999 -0.000254868 0.0535528 -0.443749
-0.000259369 0.0535008 -0.437499 -0.000264009 0.0534454 -0.431248 -0.000268839 0.0533876 -0.424998 -0.000274021
0.0533262 -0.418747 -0.000279407 0.0532595 -0.412496 -0.000284996 0.053186 -0.406245 -0.000290791 0.0531057
-0.399993 -0.000296931 0.0530185 -0.393741 -0.000303503 0.0529209 -0.38749 -0.000310339 0.0528127 -0.381238
-0.000317444 0.0526937 -0.374985 -0.00032482 0.0525669 -0.36873 -0.000332597 0.0524344 -0.362474 -0.000341074
0.0522933 -0.356219 -0.000349864 0.052141 -0.349964 -0.000359011 0.051972 -0.343707 -0.000368525 0.0517863
-0.337445 -0.000378859 0.0515841 -0.331184 -0.000390256 0.0513527 -0.324924 -0.000402277 0.0510913 -0.318665
-0.000414935 0.0507997 -0.312397 -0.000428085 0.0504921 -0.306124 -0.000441925 0.0501709 -0.299853 -0.000458067
0.0498234 -0.293583 -0.000475017 0.0494499 -0.287316 -0.000492999 0.0490262 -0.281034 -0.000512101 0.0485496
[...]
POINT_DATA 16965
FIELD attributes 3
age 1 16965 float
0 1.00118e-05 2.00235e-05 3.00353e-05 4.00471e-05 5.00588e-05 0.00010698 0.000163904 0.000220829 0.000277753 0.000351829
0.000604362 0.000856896 0.00110943 0.00136196 0.0016145 0.00192739 0.00224028 0.00255317 0.00286606 0.00317894
0.00349187 0.00380482 0.00411777 0.00443072 0.00474367 0.00505663 0.00536958 0.00568253 0.00599548 0.00630844
0.00662142 0.00693443 0.00724744 0.00756045 0.00787347 0.00818648 0.00849949 0.0088125 0.00912552 0.00943853
0.00975157 0.0100646 0.0103777 0.0106908 0.0110039 0.0113169 0.01163 0.0119431 0.0122562 0.0125692
0.0128823 0.0131955 0.0135086 0.0138217 0.0141348 0.0144479 0.0147611 0.0150742 0.0153873 0.0157004
0.0160136 0.0163268 0.01664 0.0169532 0.0172664 0.0175796 0.0178928 0.018206 0.0185192 0.0188324
0.0191456 0.0194589 0.0197722 0.0200854 0.0203987 0.020712 0.0210253 0.0213386 0.0216518 0.0219651
0.0222785 0.0225918 0.0229052 0.0232186 0.023532 0.0238454 0.0241588 0.0244722 0.0247856 0.025099
0.0254125 0.025726 0.0260395 0.026353 0.0266666 0.0269801 0.0272936 0.0276072 0.0279207 0.0282342
0.0285478 0.0288616 0.0291753 0.0294891 0.0298028 0.0301166 0.0304303 0.0307441 0.0310578 0.0313716
0.0316856 0.0319997 0.0323137 0.0326278 0.0329419 0.0332562 0.0335704 0.0338847 0.0341989 0.0345131
0.0348278 0.0351428 0.0354577 0.0357726 0.0360875 0.0364028 0.0367181 0.0370334 0.0373487 0.0376639
0.0379793 0.0382966 0.0386138 0.0389309 0.0392479 0.0394065 0.0395653 0.0397241 0.0398829 0.0400416
0.0402002 0.0403588 0.0405174 0.040676 0.0408346 0.0409924 0.0411505 0.0413085 0.0414665 0.0416245
0.0417814 0.0419384 0.0420954 0.0422523 0.0424093 0.0425664 0.0427237 0.042881 0.0430382 0.0431954
0.0433527 0.04351 0.0436674 0.0438247 0.0439819 0.0441417 0.0443038 0.0444658 0.0446277 0.0447898
0.0449542 0.0451184 0.0452825 0.0454465 0.0456108 0.0457671 0.0459384 0.0461276 0.0463386 0.0465949
0 2.41844e-06 4.83693e-06 7.25548e-06 9.6741e-06 1.20734e-05 2.00133e-05 2.79538e-05 3.5895e-05 4.38369e-05
5.17794e-05 0.000375496 0.000699339 0.00102331 0.00134742 0.00167166 0.00199604 0.00232059 0.00264532 0.00297022
0.0032953 0.00362058 0.00394604 0.00427168 0.00459748 0.00492344 0.00524957 0.00557585 0.00590228 0.00622886
0.00655561 0.00688254 0.00720965 0.00753693 0.00786437 0.00819196 0.00851972 0.00884763 0.00917572 0.00950397
0.00983239 0.010161 0.0104898 0.0108188 0.0111479 0.0114771 0.0118066 0.0121361 0.0124657 0.0127955
0.0131254 0.0134554 0.0137855 0.0141158 0.0144463 0.0147768 0.0151075 0.0154384 0.0157695 0.0161007
0.0164322 0.0167639 0.0170958 0.017428 0.0177605 0.0180932 0.0184261 0.0187593 0.0190927 0.0194264
0.0197603 0.0200945 0.020429 0.0207637 0.0210986 0.0214339 0.0217693 0.0221051 0.0224412 0.0227777
0.0231145 0.0234516 0.0237891 0.0241271 0.0244654 0.0248042 0.0251434 0.0254831 0.0258232 0.0261637
0.0265047 0.0268461 0.0271879 0.0275303 0.0278732 0.0282166 0.0285605 0.0289052 0.0292505 0.0295966
0.0299433 0.0302907 0.030639 0.030988 0.031338 0.031689 0.0320409 0.0323939 0.0327479 0.033103
0.0334593 0.0338166 0.0341749 0.0345344 0.0348952 0.0352575 0.0356215 0.0359873 0.036355 0.0367247
0.0370963 0.0374697 0.0378447 0.0382215 0.0386004 0.0389826 0.0393691 0.0397571 0.0401467 0.0405378
0.0409339 0.0411319 0.0413302 0.041529 0.0417281 0.0419291 0.0421299 0.042331 0.0425326 0.0427347
0.0429389 0.0431427 0.0433468 0.0435511 0.0437555 0.0439631 0.0441681 0.0443728 0.0445775 0.044782
0.0449889 0.0450261 0.0450634 0.0451006 0.0451379 0.0451734 0.0453403 0.0455077 0.0456755 0.0458437
0.0460134 0.0462123 0.0464114 0.0466109 0.046811 0.0470123 0.0472335 0.0474542 0.0476757 0.0479013
0.0481577 0.0484189 0.0486392 0.048852 0.049052 0.0492616 0.0493535 0.0494369 0.0495165 0.0496036
0.049682 0.0499297 0.050208 0.0505255 0.0508953 0.0513634 0.0519039 0.052377 0.0528768 0.053444
0.0543473 0.0547314 0.0551646 0.0555835 0.0559901 0.0577242 0.0577242 0.0577242 0.0577242 0.0577242
0.0577242 0.0579945 0.0583051 0.0586482 0.0590273 0.0598551 0 2.43671e-06 4.87344e-06 7.31017e-06
9.74691e-06 1.21841e-05 2.01276e-05 2.80712e-05 3.60149e-05 4.39587e-05 5.19025e-05 0.000376307 0.0007008 0.00102538
0.00135005 0.00167482 0.00199968 0.00232468 0.00264984 0.00297516 0.00330062 0.00362624 0.00395201 0.00427793
0.004604 0.00493023 0.00525661 0.00558312 0.00590977 0.00623656 0.00656348 0.00689054 0.00721774 0.00754508
0.00787257 0.00820019 0.00852796 0.00885588 0.00918395 0.00951217 0.00984055 0.0101691 0.0104977 0.0108265
0.0111555 0.0114846 0.0118138 0.0121431 0.0124725 0.0128021 0.0131317 0.0134615 0.0137914 0.0141214
0.0144516 0.0147819 0.0151123 0.015443 0.0157738 0.0161049 0.0164361 0.0167675 0.0170992 0.0174312
0.0177633 0.0180958 0.0184284 0.0187614 0.0190946 0.019428 0.0197617 0.0200957 0.0204299 0.0207644
0.0210991 0.0214342 0.0217695 0.0221053 0.0224414 0.0227778 0.0231147 0.0234519 0.0237895 0.0241275
0.024466 0.024805 0.0251445 0.0254845 0.0258251 0.0261661 0.0265076 0.0268497 0.0271923 0.0275355
0.0278794 0.0282239 0.0285692 0.0289155 0.0292628 0.0296109 0.0299598 0.0303097 0.0306606 0.0310127
0.0313658 0.0317203 0.0320764 0.0324343 0.032794 0.0331551 0.0335179 0.0338825 0.034249 0.0346177
0.0349883 0.0353623 0.0357398 0.0361222 0.0365084 0.0368978 0.0372933 0.0376914 0.0380937 0.0385
0.0389101 0.0393322 0.0394311 0.0395302 0.0396294 0.0397289 0.0398047 0.0399257 0.0400469 0.0401685
0.0402904 0.0404144 0.0406366 0.04086 0.0410845 0.0413098 0.041547 0.0417787 0.0420104 0.0422421
0.0424737 0.0427157 0.0427929 0.0428701 0.0429473 0.0430245 0.0430924 0.0432522 0.0434122 0.0435723
0.0437325 0.043898 0.0441419 0.0444035 0.0447204 0.0450262 0.045295 0.0453841 0.045465 0.0455407
0.0456239 0.0456994 0.045948 0.0462106 0.0464888 0.0468158 0.0471569 0.0477 0.0480191 0.0483194
0.0486681 0.0489658 0.0492057 0.0494604 0.0497311 0.0500192 0.0503455 0.0512352 0.0517409 0.0523106
0.0529675 0.0547485 0.0554265 0.055807 0.0561618 0.0565792 0.0589416 0 2.4992e-06 4.9984e-06
7.49761e-06 9.99683e-06 1.24974e-05 2.03769e-05 2.82565e-05 3.61362e-05 4.40159e-05 5.18957e-05 0.000376257 0.000700704
0.00102524 0.00134986 0.00167456 0.00199935 0.0023243 0.00264939 0.00297463 0.00330003 0.00362557 0.00395127
0.00427711 0.00460311 0.00492926 0.00525555 0.00558199 0.00590856 0.00623527 0.00656212 0.00688911 0.00721625
0.00754354 0.00787097 0.00819855 0.00852627 0.00885415 0.00918219 0.00951038 0.00983873 0.0101672 0.0104959
0.0108246 0.0111536 0.0114826 0.0118118 0.0121412 0.0124706 0.0128002 0.0131299 0.0134597 0.0137896
0.0141197 0.01445 0.0147803 0.0151109 0.0154416 0.0157726 0.0161037 0.0164351 0.0167667 0.0170985
0.0174306 0.017763 0.0180956 0.0184285 0.0187617 0.0190952 0.0194289 0.019763 0.0200973 0.0204319
0.0207668 0.0211021 0.0214377 0.0217736 0.0221099 0.0224466 0.0227837 0.0231213 0.0234593 0.0237978
0.0241368 0.0244764 0.0248164 0.0251571 0.0254984 0.0258403 0.0261828 0.026526 0.0268698 0.0272145
0.02756 0.0279063 0.0282536 0.0286017 0.0289512 0.0293018 0.0296536 0.0300067 0.0303612 0.0307173
0.0310752 0.0314348 0.0317964 0.0321601 0.0325266 0.0328958 0.0332677 0.0336428 0.0336432 0.0336436
0.033644 0.0336444 0.0336448 0.0340232 0.0344065 0.0347948 0.0351881 0.0355886 0.035996 0.0364106
0.0368336 0.037265 0.0377129 0.0379416 0.0381727 0.0384064 0.0386429 0.0388894 0.0391368 0.0393886
0.039644 0.0399023 0.040181 0.0402127 0.0402444 0.0402763 0.0403082 0.0403376 0.0405733 0.0408118
0.0410537 0.0412987 0.0415695 0.0418549 0.0421416 0.0424288 0.0427162 0.0430365 0.0430761 0.0431144
0.0431527 0.0431923 0.04323 0.0435975 0.0439801 0.044407 0.0448947 0.0454468 0.0457408 0.0460438
0.0463537 0.0466699 0.0470203 0.047706 0.0481158 0.0484729 0.0488813 0.0510298 0 2.50003e-06
5.00008e-06 7.50013e-06 1.00002e-05 1.25008e-05 2.03813e-05 2.82619e-05 3.61426e-05 4.40234e-05 5.19043e-05 0.000376318
0.000700809 0.00102538 0.00135002 0.00167475 0.00199956 0.00232453 0.00264963 0.00297488 0.00330026 0.00362579
0.00395147 0.00427729 0.00460326 0.00492938 0.00525565 0.00558205 0.00590859 0.00623527 0.0065621 0.00688906
0.00721618 0.00754344 0.00787086 0.00819842 0.00852614 0.00885401 0.00918204 0.00951023 0.00983858 0.0101671
0.0104957 0.0108245 0.0111535 0.0114826 0.0118118 0.0121411 0.0124706 0.0128002 0.01313 0.0134598
0.0137899 0.01412 0.0144504 0.0147809 0.0151115 0.0154424 0.0157735 0.0161048 0.0164363 0.0167681
0.0171002 0.0174325 0.0177651 0.018098 0.0184312 0.0187646 0.0190984 0.0194325 0.0197669 0.0201016
0.0204367 0.0207721 0.0211079 0.021444 0.0217805 0.0221174 0.0224548 0.0227927 0.0231311 0.02347
0.0238094 0.0241495 0.0244903 0.0248316 0.0251736 0.0255162 0.0258596 0.0262038 0.0265489 0.0268947
0.0272416 0.0275897 0.0279388 0.0282891 0.0286405 0.0289932 0.0293476 0.0297036 0.0300613 0.0304208
0.0307828 0.0311474 0.0315146 0.0318845 0.0322569 0.0326331 0.0330137 0.0333993 0.0337903 0.0341864
0.0345913 0.0350053 0.0354288 0.0358633 0.0360849 0.0363099 0.0365382 0.0367701 0.0370083 0.0372372
0.0374724 0.0377131 0.0379595 0.0380123 0.0380695 0.038127 0.0381849 0.038243 0.0383022 0.0385825
0.0388726 0.0391726 0.0394829 0.0398287 0.0401734 0.0405337 0.0409072 0.0412933 0.0417557 0.0418558
0.0419535 0.0420553 0.0421633 0.0422576 0.0427283 0.0432601 0.0439046 0.0446872 0.0471745 0
2.4813e-06 4.9626e-06 7.44392e-06 9.92524e-06 1.24073e-05 2.03008e-05 2.81945e-05 3.60882e-05 4.39819e-05 5.18758e-05
0.000376111 0.000700432 0.00102484 0.00134933 0.0016739 0.00199855 0.00232335 0.0026483 0.00297339 0.00329864
0.00362403 0.00394958 0.00427528 0.00460114 0.00492716 0.00525332 0.00557964 0.0059061 0.0062327 0.00655945
0.00688635 0.00721341 0.00754063 0.007868 0.00819552 0.0085232 0.00885104 0.00917905 0.00950722 0.00983555
0.0101641 0.0104927 0.0108215 0.0111505 0.0114795 0.0118088 0.0121381 0.0124676 0.0127973 0.0131271
0.013457 0.013787 0.0141173 0.0144477 0.0147783 0.015109 0.01544 0.0157712 0.0161026 0.0164343
0.0167662 0.0170984 0.0174309 0.0177637 0.0180968 0.0184301 0.0187638 0.0190978 0.0194322 0.0197669
0.0201019 0.0204373 0.0207731 0.0211092 0.0214458 0.0217828 0.0221202 0.0224582 0.0227967 0.0231357
0.0234753 0.0238155 0.0241565 0.0244981 0.0248403 0.0251833 0.0255271 0.0258718 0.0262173 0.0265637
0.0269112 0.0272598 0.0276098 0.027961 0.0283135 0.0286675 0.0290232 0.0293807 0.0297401 0.0301015
0.0304654 0.0308324 0.0312026 0.0315759 0.0319523 0.0323334 0.0327204 0.0331136 0.0335133 0.0339203
0.034339 0.0347708 0.0352167 0.03568 0.0361625 0.0364143 0.0366727 0.0369384 0.0372117 0.0374937
0.0377866 0.0380958 0.0384222 0.0387672 0.0391334 0.039531 0.0399893 0.0405471 0.0412121 0.0419691
0.0423698 0.0427661 0.0431564 0.0435235 0.0451584 0 2.39632e-06 4.79266e-06 7.18899e-06 9.58534e-06
1.19822e-05 1.99567e-05 2.79312e-05 3.59059e-05 4.38806e-05 5.18554e-05 0.000375964 0.000700162 0.00102446 0.00134885
0.00167334 0.00199792 0.00232265 0.00264754 0.00297258 0.00329777 0.00362311 0.0039486 0.00427424 0.00460004
0.00492598 0.00525207 0.00557831 0.0059047 0.00623124 0.00655792 0.00688476 0.00721176 0.00753892 0.00786624
0.00819372 0.00852136 0.00884917 0.00917714 0.00950528 0.00983358 0.0101621 0.0104907 0.0108195 0.0111484
0.0114775 0.0118067 0.0121361 0.0124656 0.0127953 0.0131251 0.013455 0.0137852 0.0141154 0.0144459
0.0147765 0.0151074 0.0154384 0.0157697 0.0161012 0.016433 0.016765 0.0170973 0.0174299 0.0177628
0.0180961 0.0184296 0.0187635 0.0190977 0.0194322 0.0197671 0.0201023 0.020438 0.020774 0.0211104
0.0214472 0.0217845 0.0221222 0.0224605 0.0227993 0.0231387 0.0234786 0.0238191 0.0241604 0.0245024
0.024845 0.0251884 0.0255327 0.0258779 0.0262241 0.0265711 0.0269192 0.0272684 0.027619 0.027971
0.0283242 0.028679 0.0290358 0.0293945 0.0297551 0.0301177 0.030483 0.0308513 0.0312229 0.0315978
0.031976 0.0323595 0.0327498 0.0331471 0.0335516 0.0339637 0.034388 0.0348261 0.0352815 0.0357527
0.0362409 0.0364993 0.036765 0.0370387 0.0373217 0.0376146 0.0379259 0.0382525 0.0385951 0.0389555
0.0393403 0.0398108 0.0403458 0.0410119 0.0418873 0.043437 0 2.28347e-06 4.56695e-06 6.85043e-06
9.13392e-06 1.14174e-05 1.95021e-05 2.75869e-05 3.56718e-05 4.37567e-05 5.18418e-05 0.000375865 0.000699975 0.00102417
0.00134846 0.00167284 0.00199731 0.00232193 0.0026467 0.00297162 0.0032967 0.00362193 0.00394732 0.00427287
0.00459857 0.00492444 0.00525046 0.00557663 0.00590296 0.00622943 0.00655606 0.00688284 0.00720977 0.00753687
0.00786413 0.00819155 0.00851913 0.00884687 0.00917479 0.00950288 0.00983114 0.0101596 0.0104881 0.0108169
0.0111458 0.0114748 0.011804 0.0121333 0.0124628 0.0127924 0.0131221 0.013452 0.0137821 0.0141124
0.0144428 0.0147734 0.0151042 0.0154352 0.0157664 0.016098 0.0164297 0.0167617 0.017094 0.0174266
0.0177595 0.0180927 0.0184263 0.0187601 0.0190943 0.0194288 0.0197636 0.0200988 0.0204343 0.0207703
0.0211066 0.0214434 0.0217805 0.0221181 0.0224562 0.0227949 0.0231341 0.0234738 0.0238142 0.0241553
0.024497 0.0248393 0.0251824 0.0255263 0.025871 0.0262166 0.026563 0.0269103 0.0272589 0.0276086
0.0279596 0.0283117 0.0286652 0.0290204 0.0293773 0.0297359 0.0300963 0.0304589 0.0308244 0.0311926
0.0315635 0.0319374 0.0323148 0.0326974 0.0330854 0.0334788 0.0338781 0.0342842 0.0347016 0.0351293
0.0355678 0.0360191 0.0361023 0.036186 0.0362705 0.0363556 0.0364113 0.0365732 0.0367377 0.0369048
0.0370745 0.0372485 0.0375137 0.0377883 0.0380728 0.0383675 0.038687 0.039015 0.039354 0.0397032
0.0400638 0.040495 0.0407537 0.0410211 0.0413193 0.0416518 0.041985 0.0424731 0.0430043 0.0435714
0.0442793 0.0460847 0 2.22665e-06 4.45331e-06 6.67998e-06 8.90665e-06 1.11335e-05 1.92727e-05 2.7412e-05
3.55514e-05 4.36908e-05 5.18304e-05 0.000375783 0.000699821 0.00102395 0.00134816 0.00167248 0.00199689 0.00232145
0.00264618 0.00297105 0.00329608 0.00362125 0.00394659 0.00427208 0.00459772 0.00492351 0.00524945 0.00557555
0.00590179 0.00622819 0.00655474 0.00688144 0.0072083 0.00753532 0.00786251 0.00818985 0.00851736 0.00884504
0.00917288 0.0095009 0.00982908 0.0101574 0.0104859 0.0108146 0.0111434 0.0114724 0.0118015 0.0121308
0.0124602 0.0127897 0.0131194 0.0134493 0.0137793 0.0141095 0.0144399 0.0147704 0.0151011 0.0154321
0.0157633 0.0160947 0.0164264 0.0167584 0.0170906 0.0174231 0.0177559 0.018089 0.0184225 0.0187562
0.0190902 0.0194246 0.0197593 0.0200943 0.0204296 0.0207654 0.0211015 0.021438 0.0217748 0.0221121
0.0224498 0.022788 0.0231267 0.0234659 0.0238057 0.0241461 0.0244871 0.0248287 0.0251709 0.0255138
0.0258574 0.0262017 0.0265468 0.0268926 0.0272396 0.0275876 0.0279366 0.0282865 0.0286375 0.0289897
0.0293433 0.0296982 0.0300547 0.0304129 0.0307734 0.0311361 0.0315008 0.0318675 0.0322367 0.0326089
0.0329843 0.0333628 0.0337456 0.0341341 0.034529 0.0349301 0.0353364 0.0357494 0.0359599 0.0361725
0.0363873 0.0366043 0.0368248 0.0370485 0.0372754 0.0375056 0.0377391 0.0379802 0.0382241 0.0384741
0.0387285 0.0389869 0.0392573 0.0393002 0.0393433 0.0393865 0.0394299 0.0394668 0.039699 0.0399351
0.0401749 0.0404184 0.0406856 0.0410026 0.0413242 0.0416491 0.0419764 0.0423532 0.0424364 0.0425149
0.0425929 0.0426768 0.0427565 0.0432221 0.0437182 0.0442907 0.0449486 0.0456367 0.0459485 0.0462742
0.0466122 0.0469605 0.0473468 0.047889 0.0482624 0.0485545 0.0489063 0.0506307 0 2.2192e-06
4.4384e-06 6.65761e-06 8.87682e-06 1.10959e-05 1.92374e-05 2.7379e-05 3.55207e-05 4.36624e-05 5.18043e-05 0.000375593
0.000699472 0.00102344 0.00134751 0.00167166 0.00199591 0.00232033 0.0026449 0.00296963 0.00329452 0.00361956
0.00394476 0.00427012 0.00459563 0.00492129 0.00524712 0.0055731 0.00589923 0.00622551 0.00655194 0.00687852
0.00720526 0.00753216 0.00785922 0.00818645 0.00851383 0.00884139 0.00916911 0.009497 0.00982505 0.0101533
0.0104817 0.0108102 0.0111389 0.0114677 0.0117967 0.0121258 0.0124551 0.0127845 0.0131141 0.0134438
0.0137737 0.0141038 0.014434 0.0147645 0.0150951 0.015426 0.0157571 0.0160884 0.01642 0.0167518
0.0170839 0.0174163 0.017749 0.018082 0.0184152 0.0187488 0.0190826 0.0194167 0.0197511 0.0200858
0.0204209 0.0207563 0.021092 0.021428 0.0217644 0.0221012 0.0224384 0.022776 0.023114 0.0234525
0.0237916 0.0241311 0.0244712 0.0248118 0.025153 0.0254946 0.0258369 0.0261798 0.0265233 0.0268675
0.0272125 0.0275583 0.0279049 0.0282523 0.0286004 0.0289496 0.0292997 0.029651 0.0300034 0.0303571
0.0307123 0.0310689 0.0314271 0.0317868 0.032148 0.0325108 0.0328754 0.0332422 0.0336116 0.0339837
0.0343594 0.0347386 0.0351216 0.0355081 0.0358979 0.0362908 0.0366868 0.0370873 0.0374958 0.0377026
0.0379108 0.0381203 0.0383313 0.0385459 0.0387623 0.0389801 0.0392 0.0394219 0.0396505 0.0398791
0.0401097 0.0403421 0.0405758 0.040819 0.0410536 0.0412889 0.0415247 0.0417609 0.0419666 0.0419749
0.0419832 0.0419915 0.0419998 0.042008 0.0422429 0.0424786 0.0427149 0.0429518 0.0432075 0.0434553
0.0437329 0.0440722 0.0443821 0.0446632 0.0447294 0.0447911 0.0448508 0.0449138 0.0449735 0.0452398
0.0455189 0.0458535 0.0462742 0.0466321 0.0470224 0.0472997 0.0475801 0.0478619 0.0481177 0.0483442
0.0485806 0.0488272 0.0490766 0.0493113 0.0495831 0.0497573 0.0498979 0.0500491 0.0502276 0.0503589
0.050489 0.0506179 0.0507491 0.0508921 0.0513353 0.0515588 0.0517938 0.0520412 0.0524452 0.052627
0.0527677 0.0528806 0.053 0.0531325 0.0531615 0.0531912 0.0532215 0.0532523 0.0532828 0.0536302
0.0539774 0.0543672 0.0548084 0.0552294 0.0556206 0.0559478 0.0562227 0.0564567 0.0567483 0.0571648
0.057391 0.057675 0.0580605 0.0583869 0.0591937 0.0597213 0.060193 0.0608245 0.0626237 0
2.26919e-06 4.53838e-06 6.80758e-06 9.07679e-06 1.13458e-05 1.943e-05 2.75143e-05 3.55987e-05 4.36831e-05 5.17676e-05
0.000375327 0.000698983 0.00102273 0.00134658 0.00167053 0.00199457 0.00231877 0.00264314 0.00296767 0.00329236
0.00361721 0.00394222 0.00426739 0.00459271 0.00491819 0.00524383 0.00556962 0.00589556 0.00622166 0.00654791
0.0068743 0.00720087 0.00752759 0.00785448 0.00818152 0.00850873 0.00883611 0.00916366 0.00949138 0.00981926
0.0101473 0.0104755 0.0108039 0.0111324 0.0114611 0.0117899 0.0121189 0.012448 0.0127773 0.0131068
0.0134364 0.0137662 0.0140961 0.0144263 0.0147567 0.0150873 0.0154181 0.0157491 0.0160804 0.0164119
0.0167437 0.0170757 0.0174079 0.0177405 0.0180733 0.0184063 0.0187397 0.0190733 0.0194071 0.0197413
0.0200757 0.0204105 0.0207455 0.0210808 0.0214165 0.0217524 0.0220888 0.0224255 0.0227626 0.0231001
0.023438 0.0237763 0.0241151 0.0244544 0.0247941 0.0251343 0.025475 0.0258162 0.0261579 0.0265001
0.0268429 0.0271862 0.0275302 0.0278748 0.0282201 0.0285659 0.0289126 0.0292601 0.0296084 0.0299576
0.0300697 0.030182 0.0302944 0.0304069 0.0304952 0.0307389 0.0309831 0.0312278 0.0314729 0.0317186
0.0320737 0.03243 0.0327876 0.0331463 0.0335063 0.0338678 0.0342308 0.0345952 0.0349613 0.0353293
0.0356989 0.0360702 0.0364437 0.0368193 0.0371981 0.037579 0.0379624 0.0383482 0.0387363 0.0391296
0.0395221 0.0399179 0.0403171 0.0407192 0.0411304 0.0413324 0.0415347 0.0417371 0.0419397 0.0421452
0.0421591 0.042173 0.042187 0.0422009 0.0422144 0.0424053 0.0425964 0.0427877 0.0429793 0.0431753
0.0433846 0.0435944 0.0438047 0.0440155 0.0442337 0.0444494 0.0446646 0.044879 0.0450927 0.0453101
0.0453708 0.0454313 0.0454917 0.045552 0.0456101 0.0456551 0.0457 0.0457447 0.0457895 0.0458342
0.0459368 0.046039 0.0461412 0.0462432 0.0463451 0.046444 0.0465423 0.0466403 0.0467379 0.0468294
0.0468758 0.0469216 0.0469669 0.047012 0.0470551 0.0471127 0.0471667 0.0472303 0.0473086 0.0473775
0.047436 0.0474764 0.0475139 0.0475501 0.0475853 0.0476613 0.0477202 0.0477701 0.0478138 0.0478559
0.0478625 0.0478691 0.0478758 0.0478824 0.0478888 0.0479251 0.047962 0.0479994 0.048037 0.0480797
0.0481123 0.0481449 0.0481776 0.0482102 0.0482402 0.0482535 0.0482667 0.04828 0.0482936 0.048308
0.0483632 0.0484183 0.0484846 0.0485448 0.0485925 0.0486085 0.0486246 0.0486406 0.0486567 0.0486731
0.0486989 0.0487252 0.048755 0.048789 0.0488226 0.0488855 0.048939 0.0489861 0.0490282 0.0490461
0.0490509 0.0490558 0.0490606 0.0490655 0.0490703 0.0490849 0.0490995 0.049114 0.0491286 0.0491435
0.0491725 0.0492032 0.0492367 0.0492735 0.0493131 0.0493718 0.0494344 0.0495092 0.0495799 0.0496421