# vtk DataFile Version 2.0
tracks
ASCII
DATASET POLYDATA
POINTS 20833 float
-1.001 1e-07 0.0011 -1.0008 9.83165e-08 0.0011 -1.0006 9.66329e-08 0.00110001 -1.0004 9.49493e-08
0.00110001 -1.0002 9.32658e-08 0.00110001 -1 9.15821e-08 0.00110002 -0.997824 7.32657e-08 0.00110005
-0.995649 5.46191e-08 0.00110009 -0.993473 3.59684e-08 0.00110012 -0.991297 1.73136e-08 0.00110015 -0.989278
1.79012e-28 0.00110018 -0.985173 -3.52181e-08 0.00110025 -0.981067 -7.04529e-08 0.00110031 -0.976961 -1.05704e-07
0.00110037 -0.972856 -1.40972e-07 0.00110044 -0.96875 -1.76257e-07 0.0011005 -0.9625 -2.29884e-07 0.00110059
-0.95625 -2.83647e-07 0.00110069 -0.95 -3.37445e-07 0.00110078 -0.94375 -3.91278e-07 0.00110088 -0.9375
-4.45147e-07 0.00110097 -0.93125 -5.04129e-07 0.00110106 -0.925 -5.73613e-07 0.00110116 -0.91875 -6.43142e-07
0.00110126 -0.9125 -7.12716e-07 0.00110136 -0.90625 -7.82336e-07 0.00110146 -0.9 -8.51562e-07 0.00110156
-0.89375 -9.21294e-07 0.00110166 -0.8875 -9.91074e-07 0.00110176 -0.88125 -1.0609e-06 0.00110186 -0.875
-1.13077e-06 0.00110196 -0.86875 -1.21225e-06 0.00110208 -0.8625 -1.30339e-06 0.0011022 -0.85625 -1.39459e-06
0.00110233 -0.85 -1.48586e-06 0.00110245 -0.84375 -1.5772e-06 0.00110258 -0.8375 -1.66764e-06 0.00110271
-0.83125 -1.75918e-06 0.00110283 -0.825 -1.85079e-06 0.00110296 -0.81875 -1.94247e-06 0.00110309 -0.8125
-2.03422e-06 0.00110321 -0.80625 -2.13011e-06 0.00110335 -0.8 -2.22627e-06 0.00110348 -0.79375 -2.3225e-06
0.00110362 -0.7875 -2.4188e-06 0.00110376 -0.78125 -2.51519e-06 0.0011039 -0.775 -2.60992e-06 0.00110404
-0.76875 -2.70658e-06 0.00110417 -0.7625 -2.80332e-06 0.00110431 -0.75625 -2.90015e-06 0.00110445 -0.75
-2.99705e-06 0.00110459 -0.74375 -3.08813e-06 0.00110472 -0.7375 -3.17308e-06 0.00110485 -0.73125 -3.2581e-06
0.00110497 -0.725 -3.34319e-06 0.0011051 -0.71875 -3.42837e-06 0.00110522 -0.7125 -3.51089e-06 0.00110534
-0.70625 -3.59643e-06 0.00110547 -0.7 -3.68204e-06 0.00110559 -0.69375 -3.76774e-06 0.00110572 -0.6875
-3.85351e-06 0.00110584 -0.68125 -3.9375e-06 0.00110595 -0.675 -4.02731e-06 0.00110603 -0.66875 -4.11721e-06
0.00110611 -0.6625 -4.2072e-06 0.00110619 -0.65625 -4.29728e-06 0.00110626 -0.65 -4.38348e-06 0.00110634
-0.64375 -4.47411e-06 0.00110642 -0.6375 -4.56484e-06 0.0011065 -0.63125 -4.65567e-06 0.00110658 -0.625
-4.7466e-06 0.00110666 -0.61875 -4.84063e-06 0.0011067 -0.6125 -4.9315e-06 0.00110667 -0.60625 -5.02247e-06
0.00110665 -0.6 -5.11354e-06 0.00110662 -0.59375 -5.20471e-06 0.00110659 -0.5875 -5.29011e-06 0.00110657
-0.58125 -5.3821e-06 0.00110654 -0.575 -5.47421e-06 0.00110652 -0.56875 -5.56643e-06 0.00110649 -0.5625
-5.65876e-06 0.00110647 -0.55625 -5.74387e-06 0.00110633 -0.55 -5.83019e-06 0.00110606 -0.54375 -5.91662e-06
0.00110579 -0.5375 -6.00314e-06 0.00110552 -0.53125 -6.08977e-06 0.00110525 -0.525 -6.16787e-06 0.00110498
-0.51875 -6.25616e-06 0.00110471 -0.5125 -6.34456e-06 0.00110444 -0.50625 -6.4331e-06 0.00110417 -0.5
-6.52176e-06 0.0011039 -0.49375 -6.61309e-06 0.00110344 -0.4875 -6.71289e-06 0.00110271 -0.48125 -6.81284e-06
0.00110199 -0.475 -6.91292e-06 0.00110126 -0.46875 -7.01315e-06 0.00110054 -0.4625 -7.09964e-06 0.00109981
-0.45625 -7.20355e-06 0.00109908 -0.45 -7.30765e-06 0.00109836 -0.44375 -7.41196e-06 0.00109763 -0.4375
-7.51648e-06 0.00109691 -0.431249 -7.63773e-06 0.0010958 -0.424999 -7.78822e-06 0.00109412 -0.418749 -7.93901e-06
0.00109245 -0.412499 -8.09009e-06 0.00109078 -0.406249 -8.24147e-06 0.00108911 -0.399998 -8.36748e-06 0.00108744
-0.393747 -8.52726e-06 0.00108577 -0.387496 -8.68759e-06 0.00108411 -0.381246 -8.84849e-06 0.00108244 -0.374995
-9.00995e-06 0.00108078 -0.368743 -9.20329e-06 0.00107828 -0.36249 -9.43418e-06 0.00107449 -0.356238 -9.66606e-06
0.00107071 -0.349986 -9.89893e-06 0.00106695 -0.343734 -1.01328e-05 0.0010632 -0.337478 -1.03112e-05 0.00105946
-0.331222 -1.05676e-05 0.00105572 -0.324967 -1.08266e-05 0.00105199 -0.318711 -1.1088e-05 0.00104827 -0.312455
-1.1352e-05 0.00104457 -0.306193 -1.16634e-05 0.00103894 -0.299931 -1.20554e-05 0.00103012 -0.293669 -1.24524e-05
0.00102138 -0.287406 -1.28543e-05 0.00101271 -0.281144 -1.32612e-05 0.00100412 -0.274873 -1.35123e-05 0.000995566
-0.268602 -1.39946e-05 0.000987037 -0.262332 -1.4488e-05 0.000978578 -0.256061 -1.49929e-05 0.00097019 -0.24979
-1.55093e-05 0.000961871 -0.243518 -1.61944e-05 0.000948798 -0.237246 -1.72312e-05 0.000928355 -0.230975 -1.82922e-05
0.00090837 -0.224703 -1.9378e-05 0.000888831 -0.218431 -2.04895e-05 0.000869731 -0.215291 -2.11424e-05 0.000860311
-0.21215 -2.20742e-05 0.000848984 -0.20901 -2.30419e-05 0.000837799 -0.205869 -2.40465e-05 0.000826753 -0.202729
-2.50887e-05 0.000815844 -0.19959 -2.53103e-05 0.000805239 -0.196451 -2.64513e-05 0.000794552 -0.193312 -2.76342e-05
0.000783994 -0.190174 -2.88601e-05 0.000773564 -0.187035 -3.013e-05 0.000763259 -0.183908 -3.11671e-05 0.000751261
-0.180782 -3.25586e-05 0.000736984 -0.177656 -3.3966e-05 0.000722977 -0.17453 -3.53899e-05 0.000709235 -0.171404
-3.68307e-05 0.000695753 -0.168295 -3.69264e-05 0.00068271 -0.165187 -3.84829e-05 0.000669677 -0.162078 -3.99817e-05
0.000656899 -0.15897 -4.14211e-05 0.000644371 -0.155861 -4.27995e-05 0.00063209 -0.152748 -4.40056e-05 0.000616696
-0.149635 -4.53717e-05 0.00059842 -0.146522 -4.67087e-05 0.000580693 -0.143409 -4.80154e-05 0.000563498 -0.140295
-4.92909e-05 0.000546816 -0.137177 -4.92948e-05 0.000530351 -0.13406 -5.07611e-05 0.000514468 -0.130942 -5.22946e-05
0.000499071 -0.127824 -5.3898e-05 0.000484144 -0.124706 -5.55741e-05 0.000469674 -0.121535 -5.74537e-05 0.000453739
-0.118365 -6.02303e-05 0.000451232 -0.115194 -6.35169e-05 0.000448265 -0.112024 -6.73406e-05 0.000444813 -0.108846
-7.17403e-05 0.000440842 -0.105635 -7.17403e-05 0.000440842 -0.102424 -8.08027e-05 0.000434269 -0.0992125 -9.1778e-05
0.000426309 -0.0960014 -0.000104827 0.000416845 -0.092785 -0.000120148 0.000405733 -0.0897496 -0.000120148 0.000405733
-0.0867143 -0.000151171 0.000389825 -0.0836792 -0.000193216 0.000368264 -0.0806445 -0.000250672 0.000338801 -0.0773635
-0.000336889 0.00029459 -1.001 1e-07 0.0537316 -1.00092 8e-08 0.0537316 -1.00084 5.99763e-08
0.0537317 -1.00076 3.99289e-08 0.0537317 -1.00068 1.98578e-08 0.0537318 -1.00061 3.0771e-28 0.0537318
-1.00049 -3.09454e-08 0.0537319 -1.00036 -6.1947e-08 0.053732 -1.00024 -9.30047e-08 0.0537321 -1.00012
-1.24118e-07 0.0537321 -1 -1.55288e-07 0.0537322 -0.99375 -1.764e-06 0.0537363 -0.9875 -3.3798e-06
0.0537402 -0.98125 -5.00616e-06 0.0537442 -0.975 -6.64546e-06 0.053748 -0.96875 -8.2977e-06 0.0537518
-0.9625 -9.96069e-06 0.0537556 -0.95625 -1.1669e-05 0.0537594 -0.95 -1.3421e-05 0.0537633 -0.94375
-1.52168e-05 0.0537672 -0.9375 -1.70519e-05 0.0537711 -0.93125 -1.89155e-05 0.0537751 -0.925 -2.08447e-05
0.0537791 -0.91875 -2.28418e-05 0.0537832 -0.9125 -2.49102e-05 0.0537875 -0.90625 -2.70501e-05 0.053792
-0.9 -2.92575e-05 0.0537968 -0.89375 -3.15377e-05 0.0538017 -0.8875 -3.38866e-05 0.0538068 -0.88125
-3.63041e-05 0.0538122 -0.875 -3.87916e-05 0.0538177 -0.86875 -4.1345e-05 0.0538233 -0.8625 -4.39631e-05
0.053829 -0.85625 -4.66261e-05 0.0538349 -0.85 -4.93258e-05 0.0538409 -0.84375 -5.20623e-05 0.0538471
-0.8375 -5.48297e-05 0.0538534 -0.83125 -5.76043e-05 0.0538598 -0.825 -6.03782e-05 0.0538664 -0.81875
-6.31515e-05 0.053873 -0.8125 -6.59357e-05 0.0538797 -0.80625 -6.87406e-05 0.0538864 -0.8 -7.15564e-05
0.0538932 -0.79375 -7.43553e-05 0.0538999 -0.7875 -7.71261e-05 0.0539066 -0.78125 -7.98687e-05 0.0539133
-0.775 -8.25775e-05 0.05392 -0.76875 -8.52459e-05 0.0539266 -0.7625 -8.78652e-05 0.053933 -0.75625
-9.04354e-05 0.0539393 -0.75 -9.2964e-05 0.0539456 -0.74375 -9.54573e-05 0.0539518 -0.7375 -9.79252e-05
0.0539579 -0.73125 -0.000100351 0.0539639 -0.725 -0.000102732 0.0539696 -0.71875 -0.000105068 0.0539751
-0.7125 -0.000107355 0.0539803 -0.70625 -0.00010965 0.0539852 -0.7 -0.000111943 0.0539898 -0.69375
-0.000114234 0.053994 -0.6875 -0.000116521 0.0539979 -0.68125 -0.000118798 0.0540018 -0.675 -0.000121119
0.0540055 -0.66875 -0.00012347 0.0540088 -0.6625 -0.00012585 0.0540116 -0.65625 -0.000128259 0.0540141
-0.65 -0.000130693 0.054016 -0.64375 -0.00013316 0.0540174 -0.6375 -0.000135648 0.0540181 -0.63125
-0.000138154 0.0540183 -0.625 -0.000140684 0.0540179 -0.61875 -0.000143241 0.0540173 -0.6125 -0.000145793
0.0540164 -0.60625 -0.000148325 0.0540147 -0.6 -0.000150839 0.0540122 -0.59375 -0.000153335 0.0540089
-0.5875 -0.000155815 0.0540047 -0.58125 -0.00015829 0.0539994 -0.575 -0.000160739 0.0539929 -0.56875
-0.000163161 0.0539853 -0.5625 -0.000165554 0.0539768 -0.55625 -0.000167919 0.0539675 -0.55 -0.000170309
0.0539574 -0.54375 -0.000172703 0.053946 -0.5375 -0.000175103 0.0539331 -0.53125 -0.000177509 0.0539186
-0.525 -0.000179938 0.0539025 -0.51875 -0.000182423 0.0538842 -0.5125 -0.000184936 0.0538638 -0.50625
-0.000187479 0.0538411 -0.5 -0.000190049 0.0538166 -0.49375 -0.00019267 0.0537909 -0.4875 -0.000195387
0.0537636 -0.48125 -0.000198159 0.0537336 -0.475 -0.000200992 0.0537005 -0.46875 -0.000203888 0.0536643
-0.4625 -0.000206893 0.0536249 -0.456249 -0.00021008 0.0535809 -0.449999 -0.000213385 0.0535324 -0.443749
-0.00021681 0.0534792 -0.437499 -0.000220353 0.0534223 -0.431248 -0.000224054 0.053363 -0.424998 -0.000228048
0.0533 -0.418747 -0.000232222 0.0532316 -0.412496 -0.000236581 0.0531563 -0.406245 -0.000241126 0.053074
-0.399993 -0.000245978 0.0529849 -0.393741 -0.000251203 0.0528852 -0.38749 -0.000256667 0.0527747 -0.381238
-0.000262373 0.0526535 -0.374985 -0.000268314 0.0525245 -0.36873 -0.000274576 0.0523898 -0.362474 -0.000281419
0.0522466 -0.356219 -0.000288529 0.0520918 -0.349965 -0.000295953 0.0519203 -0.343708 -0.0003037 0.051732
-0.337445 -0.000312145 0.051527 -0.331184 -0.000321473 0.0512945 -0.324924 -0.000331313 0.0510338 -0.318665
-0.000341672 0.050745 -0.312397 -0.000352427 0.0504409 -0.306124 -0.000363672 0.0501234 -0.299853 -0.000376735
0.0497838 -0.293582 -0.000390369 0.0494222 -0.287315 -0.000404718 0.0490155 -0.281034 -0.000419842 0.0485613
[...]
POINT_DATA 20833
FIELD attributes 3
age 1 20833 float
0 1.00098e-05 2.00195e-05 3.00293e-05 4.00391e-05 5.00489e-05 0.000158939 0.000267835 0.000376731 0.000485627 0.000586671
0.000792168 0.000997664 0.00120316 0.00140866 0.00161415 0.00192698 0.0022398 0.00255262 0.00286544 0.00317827
0.00349111 0.00380398 0.00411685 0.00442972 0.00474259 0.00505546 0.00536833 0.0056812 0.00599407 0.00630694
0.00661983 0.00693276 0.00724568 0.0075586 0.00787152 0.00818444 0.00849736 0.00881028 0.0091232 0.00943613
0.00974908 0.0100621 0.010375 0.010688 0.011001 0.011314 0.011627 0.01194 0.0122529 0.0125659
0.0128789 0.013192 0.013505 0.0138181 0.0141311 0.0144442 0.0147572 0.0150703 0.0153833 0.0156964
0.0160095 0.0163226 0.0166357 0.0169489 0.017262 0.0175751 0.0178883 0.0182014 0.0185145 0.0188277
0.0191409 0.0194541 0.0197673 0.0200805 0.0203938 0.020707 0.0210202 0.0213334 0.0216467 0.0219599
0.0222732 0.0225865 0.0228998 0.0232132 0.0235265 0.0238398 0.0241532 0.0244665 0.0247798 0.0250932
0.0254066 0.02572 0.0260335 0.026347 0.0266604 0.0269739 0.0272874 0.0276008 0.0279143 0.0282278
0.0285413 0.028855 0.0291686 0.0294823 0.0297959 0.0301096 0.0304232 0.0307369 0.0310506 0.0313643
0.0316781 0.031992 0.032306 0.03262 0.0329339 0.033248 0.0335621 0.0338762 0.0341903 0.0345045
0.034819 0.0351337 0.0354484 0.0357631 0.0360778 0.0363928 0.0367079 0.037023 0.0373381 0.0376531
0.0379683 0.038285 0.0386017 0.0389183 0.0392348 0.0393933 0.0395518 0.0397103 0.0398688 0.0400273
0.0401857 0.040344 0.0405024 0.0406608 0.0408191 0.0409767 0.0411345 0.0412921 0.0414498 0.0416075
0.0417641 0.0419208 0.0420775 0.0422342 0.0423908 0.0425477 0.0427047 0.0428617 0.0430187 0.0431756
0.0433327 0.0434897 0.0436468 0.0438038 0.0439608 0.0441205 0.0442828 0.0444449 0.044607 0.0447694
0.0449338 0.0450981 0.0452622 0.0454262 0.0455904 0.0457465 0.0459176 0.0461064 0.0463168 0.0465736
0 4.05687e-06 8.11389e-06 1.2171e-05 1.62283e-05 2.02379e-05 2.64792e-05 3.27208e-05 3.89628e-05 4.52051e-05
5.14477e-05 0.000373074 0.000694801 0.00101663 0.00133858 0.00166064 0.00198281 0.00230513 0.00262759 0.00295019
0.00327294 0.00359583 0.00391886 0.00424203 0.00456536 0.00488884 0.00521247 0.00553625 0.0058602 0.0061843
0.00650855 0.00683295 0.00715752 0.00748225 0.00780715 0.00813223 0.00845749 0.00878293 0.00910856 0.00943438
0.00976039 0.0100866 0.010413 0.0107395 0.0110663 0.0113933 0.0117204 0.0120478 0.0123753 0.0127031
0.013031 0.0133591 0.0136875 0.014016 0.0143448 0.0146737 0.0150029 0.0153323 0.015662 0.0159918
0.016322 0.0166523 0.0169829 0.0173138 0.017645 0.0179764 0.018308 0.0186399 0.0189721 0.0193045
0.0196372 0.0199702 0.0203035 0.020637 0.0209709 0.021305 0.0216394 0.0219741 0.0223091 0.0226445
0.0229802 0.0233162 0.0236526 0.0239894 0.0243265 0.024664 0.0250019 0.0253402 0.0256789 0.026018
0.0263576 0.0266975 0.0270379 0.0273788 0.0277202 0.028062 0.0284044 0.0287474 0.029091 0.0294351
0.0297799 0.0301253 0.0304713 0.0308181 0.0311656 0.0315138 0.0318629 0.0322129 0.0325639 0.0329157
0.0332685 0.0336222 0.0339767 0.0343323 0.0346889 0.0350469 0.0354064 0.0357673 0.0361298 0.0364938
0.0368595 0.0372265 0.0375947 0.037964 0.0383353 0.0387095 0.0390876 0.0394671 0.039848 0.0402302
0.0406167 0.0408101 0.0410039 0.041198 0.0413927 0.0415889 0.0417851 0.0419814 0.042178 0.0423749
0.0425733 0.0427711 0.0429693 0.0431679 0.0433664 0.0435674 0.043766 0.0439642 0.0441624 0.0443604
0.0445606 0.0446498 0.0447388 0.0448279 0.044917 0.0449942 0.0451051 0.045216 0.0453271 0.0454383
0.0455501 0.0457413 0.0459323 0.0461237 0.0463153 0.0465083 0.0467226 0.0469366 0.0471512 0.0473844
0.0476509 0.047915 0.0481493 0.0483864 0.0486084 0.0488315 0.0489876 0.0491197 0.0492463 0.0493876
0.0495056 0.0497399 0.0500027 0.0503021 0.0506501 0.0510835 0.0516302 0.0520804 0.0525414 0.0530468
0.0543774 0.0547616 0.0551812 0.0555823 0.0559687 0.0591502 0.0591502 0.0591502 0.0591502 0.0591502
0.0591502 0.0592988 0.0594587 0.0596283 0.0598073 0.060084 0 3.66381e-06 7.32764e-06 1.09915e-05
1.46553e-05 1.83172e-05 2.49623e-05 3.16075e-05 3.82526e-05 4.48979e-05 5.15432e-05 0.000373698 0.000695959 0.00101832
0.0013408 0.0016634 0.00198613 0.00230902 0.00263208 0.0029553 0.00327867 0.00360219 0.00392588 0.00424973
0.00457373 0.0048979 0.00522223 0.00554672 0.00587136 0.00619617 0.00652114 0.00684628 0.00717159 0.00749707
0.00782273 0.00814855 0.00847455 0.00880073 0.00912708 0.00945362 0.00978035 0.0101073 0.0104344 0.0107617
0.0110891 0.0114168 0.0117446 0.0120727 0.0124009 0.0127293 0.0130578 0.0133866 0.0137156 0.0140447
0.0143741 0.0147036 0.0150334 0.0153633 0.0156935 0.0160239 0.0163545 0.0166854 0.0170165 0.0173478
0.0176794 0.0180112 0.0183433 0.0186756 0.0190082 0.0193411 0.0196742 0.0200075 0.0203412 0.0206751
0.0210093 0.0213438 0.0216786 0.0220137 0.0223492 0.0226851 0.0230213 0.0233578 0.0236947 0.0240319
0.0243696 0.0247077 0.0250463 0.0253853 0.0257249 0.026065 0.0264055 0.0267464 0.0270879 0.02743
0.0277727 0.028116 0.02846 0.0288049 0.0291507 0.0294973 0.0298446 0.0301927 0.0305417 0.0308917
0.0312426 0.0315948 0.0319485 0.0323038 0.0326607 0.0330188 0.0333786 0.0337399 0.0341029 0.0344676
0.0348341 0.0352034 0.0355759 0.0359525 0.0363321 0.0367141 0.0371009 0.0374898 0.0378822 0.0382783
0.038678 0.0390878 0.0392078 0.0393283 0.039449 0.0395701 0.0396575 0.039753 0.0398486 0.0399445
0.0400406 0.0401377 0.0403528 0.0405692 0.0407867 0.0410052 0.0412331 0.041457 0.0416809 0.0419049
0.0421289 0.0423641 0.0424998 0.0426402 0.0427828 0.0429197 0.0430283 0.0431292 0.04323 0.0433309
0.0434318 0.0435356 0.043779 0.0440442 0.0443683 0.0447196 0.0450214 0.0451713 0.045299 0.0454267
0.0455602 0.0456768 0.0459216 0.0461807 0.0464558 0.0467666 0.0471035 0.0478261 0.0482201 0.048612
0.0490286 0.0493674 0.0496042 0.0498555 0.0501224 0.0504064 0.0507267 0.0515761 0.0520646 0.0526156
0.0532476 0.0561557 0 3.47755e-06 6.95512e-06 1.04327e-05 1.39103e-05 1.73864e-05 2.42297e-05 3.10731e-05
3.79165e-05 4.476e-05 5.16035e-05 0.000374138 0.000696787 0.00101955 0.00134243 0.00166543 0.00198855 0.00231182
0.00263525 0.00295884 0.00328259 0.0036065 0.00393056 0.00425478 0.00457915 0.00490368 0.00522836 0.00555319
0.00587818 0.00620333 0.00652864 0.0068541 0.00717972 0.00750551 0.00783147 0.00815759 0.00848388 0.00881035
0.00913699 0.00946382 0.00979081 0.010118 0.0104453 0.0107729 0.0111006 0.0114285 0.0117566 0.0120849
0.0124133 0.0127419 0.0130708 0.0133998 0.013729 0.0140584 0.0143879 0.0147177 0.0150477 0.015378
0.0157084 0.0160391 0.01637 0.0167011 0.0170325 0.0173642 0.0176961 0.0180282 0.0183606 0.0186933
0.0190263 0.0193595 0.019693 0.0200268 0.0203609 0.0206954 0.0210301 0.0213652 0.0217006 0.0220364
0.0223726 0.0227092 0.0230461 0.0233835 0.0237213 0.0240596 0.0243984 0.0247377 0.0250775 0.025418
0.025759 0.0261006 0.0264428 0.0267857 0.0271293 0.0274738 0.027819 0.0281651 0.028512 0.0288602
0.0292094 0.0295597 0.0299113 0.030264 0.0306184 0.0309744 0.0313319 0.0316913 0.0320527 0.0324166
0.0327829 0.0331517 0.0334048 0.0334286 0.0334525 0.0334763 0.0335002 0.0335241 0.0338991 0.0342782
0.0346614 0.0350488 0.0354422 0.0358412 0.0362466 0.0366595 0.0370799 0.0375147 0.0377369 0.0379613
0.0381877 0.0384168 0.0386537 0.038892 0.0391348 0.0393813 0.0396303 0.039895 0.0399638 0.0400328
0.0401022 0.0401719 0.040227 0.0404196 0.0406141 0.0408109 0.0410097 0.0412281 0.0415048 0.0417826
0.0420611 0.0423398 0.0426753 0.0427591 0.0428371 0.0429151 0.0429993 0.0430763 0.0434835 0.0439181
0.0444152 0.0449869 0.0455996 0.0458837 0.0461796 0.0464858 0.046801 0.0471523 0.047806 0.0482044
0.0485475 0.0489236 0.0511313 0 3.30471e-06 6.60943e-06 9.91416e-06 1.32189e-05 1.6522e-05 2.35431e-05
3.05642e-05 3.75853e-05 4.46066e-05 5.16278e-05 0.000374313 0.000697112 0.00102002 0.00134305 0.0016662 0.00198947
0.0023129 0.00263648 0.00296022 0.00328412 0.00360817 0.00393237 0.00425674 0.00458125 0.00490592 0.00523074
0.00555572 0.00588085 0.00620615 0.00653159 0.0068572 0.00718297 0.00750891 0.00783501 0.00816128 0.00848772
0.00881434 0.00914113 0.0094681 0.00979525 0.0101226 0.0104501 0.0107778 0.0111056 0.0114337 0.0117619
0.0120904 0.012419 0.0127478 0.0130768 0.0134059 0.0137353 0.0140649 0.0143947 0.0147247 0.0150549
0.0153854 0.015716 0.016047 0.0163781 0.0167095 0.0170412 0.0173731 0.0177053 0.0180378 0.0183706
0.0187036 0.0190369 0.0193706 0.0197046 0.0200388 0.0203734 0.0207084 0.0210438 0.0213795 0.0217155
0.022052 0.022389 0.0227263 0.0230642 0.0234025 0.0237414 0.0240808 0.0244209 0.0247615 0.0251027
0.0254445 0.0257872 0.0261305 0.0264747 0.0268196 0.0271656 0.0275126 0.0278607 0.0282099 0.0285601
0.0289117 0.0292647 0.0296194 0.0299756 0.0303336 0.030694 0.0310568 0.031422 0.0317897 0.0321599
0.0325333 0.0329105 0.033292 0.0336781 0.0340686 0.0344671 0.0348738 0.0352891 0.0357148 0.0359322
0.0361525 0.0363758 0.0366023 0.0368341 0.0370699 0.0373117 0.0375591 0.0378122 0.0378966 0.0379331
0.0379698 0.0380066 0.0380436 0.0380808 0.0383487 0.0386256 0.0389116 0.0392072 0.0395336 0.0398649
0.0402112 0.0405715 0.0409528 0.0414183 0.0416084 0.0417945 0.0419952 0.0422203 0.0423921 0.0428239
0.0433145 0.0438526 0.0444356 0.0468039 0 3.20295e-06 6.4059e-06 9.60888e-06 1.28119e-05 1.60136e-05
2.31371e-05 3.02606e-05 3.73841e-05 4.45078e-05 5.16315e-05 0.000374339 0.00069716 0.0010201 0.00134316 0.00166635
0.00198968 0.00231317 0.00263682 0.00296062 0.00328458 0.00360869 0.00393295 0.00425736 0.00458192 0.00490664
0.0052315 0.00555653 0.0058817 0.00620703 0.00653251 0.00685815 0.00718395 0.00750992 0.00783605 0.00816235
0.00848882 0.00881546 0.00914228 0.00946928 0.00979646 0.0101238 0.0104514 0.0107791 0.011107 0.0114351
0.0117634 0.0120919 0.0124206 0.0127495 0.0130785 0.0134078 0.0137373 0.014067 0.0143969 0.0147271
0.0150574 0.015388 0.0157188 0.0160499 0.0163813 0.0167129 0.0170447 0.0173769 0.0177094 0.0180421
0.0183751 0.0187085 0.0190421 0.0193761 0.0197104 0.020045 0.0203801 0.0207155 0.0210513 0.0213875
0.0217241 0.0220612 0.0223987 0.0227368 0.0230753 0.0234144 0.0237541 0.0240945 0.0244355 0.0247771
0.0251193 0.0254624 0.0258063 0.0261511 0.0264967 0.0268433 0.0271911 0.0275401 0.0278903 0.0282417
0.0285946 0.0289491 0.0293055 0.0296636 0.0300236 0.0303862 0.0307517 0.0311202 0.0314916 0.0318659
0.0322446 0.0326284 0.0330174 0.0334118 0.0338123 0.0342229 0.0346454 0.0350804 0.0355308 0.0359981
0.0362409 0.0364896 0.0367447 0.0370066 0.0372759 0.0375538 0.0378449 0.0381502 0.0384712 0.03881
0.039171 0.0395848 0.0400835 0.0406621 0.0412929 0.0416679 0.0420734 0.0425274 0.042998 0.0449294
0 3.08865e-06 6.17732e-06 9.266e-06 1.23547e-05 1.54422e-05 2.26793e-05 2.99164e-05 3.71535e-05 4.43907e-05
5.1628e-05 0.000374313 0.000697115 0.00102004 0.0013431 0.00166628 0.00198958 0.00231304 0.00263665 0.0029604
0.00328431 0.00360836 0.00393257 0.00425693 0.00458143 0.00490609 0.0052309 0.00555586 0.00588098 0.00620626
0.00653169 0.00685728 0.00718304 0.00750897 0.00783506 0.00816132 0.00848776 0.00881437 0.00914117 0.00946815
0.00979531 0.0101227 0.0104502 0.0107779 0.0111058 0.011434 0.0117623 0.0120908 0.0124195 0.0127484
0.0130775 0.0134068 0.0137363 0.0140661 0.0143961 0.0147263 0.0150567 0.0153874 0.0157184 0.0160496
0.016381 0.0167128 0.0170448 0.0173771 0.0177097 0.0180426 0.0183757 0.0187093 0.0190431 0.0193773
0.0197119 0.0200467 0.020382 0.0207177 0.0210537 0.0213902 0.0217271 0.0220645 0.0224024 0.0227408
0.0230798 0.0234192 0.0237593 0.0241001 0.0244415 0.0247836 0.0251263 0.02547 0.0258145 0.0261599
0.0265062 0.0268535 0.0272019 0.0275516 0.0279026 0.0282548 0.0286086 0.0289642 0.0293218 0.0296812
0.0300426 0.0304065 0.0307734 0.0311433 0.0315163 0.0318925 0.0322737 0.0326606 0.0330533 0.033452
0.0338569 0.0342726 0.0347002 0.0351435 0.0356008 0.0360731 0.0363224 0.0365781 0.0368409 0.0371124
0.037393 0.0376905 0.0380031 0.0383318 0.0386782 0.0390462 0.0394979 0.0400244 0.0406914 0.0415873
0.0431476 0 3.00007e-06 6.00015e-06 9.00024e-06 1.20003e-05 1.49991e-05 2.23239e-05 2.96488e-05 3.69738e-05
4.42988e-05 5.16239e-05 0.000374284 0.000697058 0.00101996 0.00134299 0.00166616 0.00198945 0.00231289 0.0026365
0.00296026 0.00328417 0.00360824 0.00393246 0.00425683 0.00458135 0.00490602 0.00523083 0.00555581 0.00588093
0.00620621 0.00653165 0.00685724 0.007183 0.00750892 0.00783501 0.00816128 0.00848771 0.00881432 0.00914112
0.0094681 0.00979526 0.0101226 0.0104501 0.0107779 0.0111058 0.0114339 0.0117622 0.0120907 0.0124195
0.0127484 0.0130775 0.0134068 0.0137364 0.0140662 0.0143962 0.0147264 0.0150569 0.0153876 0.0157186
0.0160498 0.0163813 0.0167131 0.0170451 0.0173775 0.0177101 0.018043 0.0183762 0.0187098 0.0190437
0.0193779 0.0197124 0.0200473 0.0203826 0.0207183 0.0210544 0.0213908 0.0217277 0.0220651 0.0224029
0.0227413 0.0230802 0.0234195 0.0237595 0.0241002 0.0244414 0.0247833 0.0251258 0.0254692 0.0258133
0.0261583 0.0265041 0.0268509 0.0271987 0.0275478 0.0278979 0.0282492 0.0286018 0.0289561 0.029312
0.0296696 0.0300289 0.0303903 0.0307544 0.0311211 0.0314904 0.0318624 0.0322378 0.0326176 0.0330019
0.0333909 0.0337849 0.0341846 0.0345943 0.0350132 0.0354416 0.0358812 0.0359743 0.0360681 0.0361627
0.0362581 0.0363202 0.0364656 0.0366129 0.0367621 0.0369132 0.0370671 0.0373201 0.0375811 0.0378506
0.0381291 0.0384255 0.0387303 0.0390473 0.0393775 0.039722 0.0401262 0.0405142 0.0409566 0.0415006
0.0421797 0.0429247 0.043388 0.0439041 0.0444698 0.0451505 0.0469491 0 2.97056e-06 5.94113e-06
8.91172e-06 1.18823e-05 1.48514e-05 2.22054e-05 2.95594e-05 3.69135e-05 4.42677e-05 5.1622e-05 0.000374271 0.000697032
0.0010199 0.0013429 0.00166602 0.00198926 0.00231265 0.0026362 0.00295989 0.00328374 0.00360775 0.0039319
0.0042562 0.00458065 0.00490526 0.00523001 0.00555493 0.00588 0.00620523 0.00653062 0.00685616 0.00718187
0.00750775 0.0078338 0.00816002 0.00848642 0.00881299 0.00913976 0.0094667 0.00979383 0.0101211 0.0104486
0.0107763 0.0111042 0.0114323 0.0117606 0.0120891 0.0124177 0.0127466 0.0130757 0.013405 0.0137345
0.0140643 0.0143942 0.0147244 0.0150549 0.0153855 0.0157165 0.0160477 0.0163791 0.0167108 0.0170428
0.0173751 0.0177077 0.0180405 0.0183737 0.0187071 0.0190409 0.019375 0.0197094 0.0200441 0.0203793
0.0207148 0.0210507 0.0213869 0.0217235 0.0220606 0.0223981 0.0227361 0.0230745 0.0234134 0.0237529
0.024093 0.0244337 0.0247749 0.0251166 0.0254591 0.0258022 0.026146 0.0264906 0.026836 0.0271823
0.0275297 0.0278781 0.0282273 0.0285775 0.028929 0.0292818 0.0296357 0.0299912 0.0303484 0.0307077
0.0310691 0.0314324 0.0317976 0.0321652 0.0325355 0.0329086 0.0332844 0.0336641 0.0340487 0.0344397
0.0348369 0.0352397 0.0356488 0.0358573 0.0360678 0.0362804 0.0364952 0.0367133 0.0369346 0.0371587
0.0373856 0.0376154 0.0378514 0.0380901 0.0383343 0.0385826 0.0388343 0.0390968 0.0391667 0.0392371
0.0393079 0.0393792 0.0394318 0.0396338 0.039839 0.0400473 0.0402588 0.0404889 0.0408018 0.0411207
0.0414448 0.0417802 0.0421752 0.0422985 0.042413 0.0425318 0.0426588 0.0427757 0.043295 0.043857
0.0445173 0.0452846 0.0463197 0.0466274 0.0469519 0.0472922 0.0476462 0.0480422 0.0485788 0.0489502
0.0492359 0.0495742 0.0514155 0 3.00192e-06 6.00384e-06 9.00577e-06 1.20077e-05 1.50083e-05 2.23278e-05
2.96474e-05 3.6967e-05 4.42867e-05 5.16064e-05 0.000374157 0.00069682 0.0010196 0.00134249 0.00166549 0.00198863
0.00231192 0.00263536 0.00295896 0.00328271 0.00360661 0.00393066 0.00425487 0.00457922 0.00490373 0.00522839
0.0055532 0.00587817 0.0062033 0.00652859 0.00685403 0.00717964 0.00750542 0.00783138 0.0081575 0.0084838
0.00881028 0.00913694 0.00946379 0.00979082 0.010118 0.0104454 0.010773 0.0111008 0.0114288 0.011757
0.0120854 0.0124139 0.0127427 0.0130717 0.0134009 0.0137303 0.01406 0.0143898 0.0147199 0.0150503
0.0153809 0.0157117 0.0160428 0.0163741 0.0167057 0.0170376 0.0173697 0.0177021 0.0180349 0.0183678
0.0187011 0.0190347 0.0193686 0.0197028 0.0200373 0.0203721 0.0207073 0.0210428 0.0213787 0.021715
0.0220516 0.0223886 0.0227261 0.0230639 0.0234022 0.023741 0.0240803 0.0244201 0.0247604 0.0251012
0.0254425 0.0257843 0.0261268 0.02647 0.0268137 0.0271582 0.0275035 0.0278496 0.0281965 0.0285441
0.0288925 0.0292419 0.0295923 0.0299439 0.0302965 0.0306506 0.0310061 0.031363 0.0317213 0.032081
0.0324422 0.032805 0.0331699 0.033537 0.0339068 0.0342796 0.0346555 0.0350346 0.0354168 0.035802
0.0361902 0.0365815 0.0369771 0.0373803 0.0375855 0.0377919 0.0379996 0.0382086 0.0384206 0.0386346
0.0388498 0.0390666 0.0392851 0.0395088 0.0397326 0.0399585 0.0401864 0.0404156 0.0406533 0.0408832
0.0411141 0.0413458 0.0415783 0.0418221 0.0418513 0.0418806 0.0419098 0.0419391 0.0419658 0.0421707
0.0423765 0.0425831 0.0427903 0.0430139 0.0432638 0.0435466 0.0438936 0.0442326 0.0445328 0.0446401
0.0447382 0.0448387 0.0449418 0.0450358 0.0453003 0.045579 0.0459136 0.0463377 0.0466999 0.0472607
0.0476825 0.0481179 0.0485609 0.0489139 0.0491358 0.0493681 0.0496115 0.0498634 0.0500998 0.0506925
0.0509552 0.0512144 0.0515011 0.0517665 0.0518959 0.052024 0.0521507 0.0522791 0.0524182 0.053059
0.0533228 0.0536151 0.0539426 0.0560072 0.056165 0.0562894 0.0563902 0.0564964 0.0566115 0.0566458
0.0566808 0.0567167 0.0567535 0.0567895 0.057085 0.0573667 0.0576844 0.0580474 0.0584283 0.0590727
0.059544 0.0599676 0.0604795 0.0629361 0 3.14439e-06 6.28879e-06 9.43321e-06 1.25776e-05 1.57205e-05
2.2891e-05 3.00616e-05 3.72322e-05 4.44029e-05 5.15736e-05 0.000373919 0.000696376 0.00101895 0.00134163 0.00166443
0.00198734 0.00231042 0.00263364 0.00295702 0.00328055 0.00360423 0.00392807 0.00425205 0.00457619 0.00490047
0.00522491 0.0055495 0.00587426 0.00619917 0.00652424 0.00684947 0.00717487 0.00750044 0.00782619 0.00815211
0.0084782 0.00880448 0.00913094 0.00945759 0.00978442 0.0101114 0.0104387 0.0107661 0.0110937 0.0114215
0.0117494 0.0120776 0.012406 0.0127347 0.0130635 0.0133925 0.0137218 0.0140512 0.014381 0.0147109
0.0150411 0.0153715 0.0157022 0.0160331 0.0163643 0.0166957 0.0170274 0.0173593 0.0176915 0.018024
0.0183568 0.0186898 0.0190231 0.0193567 0.0196907 0.0200249 0.0203594 0.0206942 0.0210294 0.0213648
0.0217007 0.0220368 0.0223734 0.0227103 0.0230476 0.0233853 0.0237234 0.0240619 0.0244008 0.0247402
0.02508 0.0254204 0.0257612 0.0261025 0.0264443 0.0267866 0.0271294 0.0274729 0.027817 0.0281547
0.0281561 0.0281575 0.0281589 0.0281603 0.0281617 0.028507 0.028853 0.0291998 0.0295473 0.0298956
0.0302446 0.0305945 0.0309453 0.0312971 0.0316498 0.0320035 0.0323582 0.032714 0.033071 0.0334292
0.0337887 0.0341496 0.0345119 0.0348757 0.0352412 0.0356082 0.0359767 0.036347 0.0367191 0.0370938
0.0374705 0.0378495 0.0382308 0.0386144 0.0390028 0.0393901 0.0397811 0.0401754 0.0405719 0.0409757
0.0411747 0.0413739 0.0415733 0.0417729 0.0419747 0.0420134 0.0420521 0.0420907 0.0421294 0.042165
0.0423285 0.0424922 0.0426559 0.0428196 0.0429855 0.0431899 0.0433943 0.0435987 0.0438031 0.0440127
0.0442208 0.0444279 0.0446342 0.0448395 0.045046 0.0451465 0.0452468 0.0453469 0.0454467 0.0455469
0.0456028 0.0456585 0.0457141 0.0457696 0.0458239 0.0458657 0.0459074 0.045949 0.0459906 0.0460322
0.0461254 0.0462182 0.04631 0.0464013 0.0464912 0.0465362 0.046581 0.0466254 0.0466695 0.046712
0.046742 0.0467717 0.0468009 0.0468297 0.0468726 0.0468808 0.0468891 0.0468972 0.0469054 0.0469134
0.0469508 0.046987 0.0470226 0.0470577 0.047093 0.0471348 0.0471732 0.0472115 0.0472498 0.0472898
0.0473302 0.0473704 0.047411 0.0474519 0.0474946 0.0474991 0.0475035 0.047508 0.0475125 0.047517
0.0475568 0.0475969 0.0476374 0.0476783 0.0477204 0.0477566 0.0477928 0.0478291 0.0478654 0.0479011
0.04791 0.0479188 0.0479277 0.0479365 0.0479453 0.0479899 0.0480345 0.0480793 0.0481242 0.0481687
0.0482036 0.0482386 0.0482736 0.0483086 0.0483444 0.0483534 0.0483624 0.0483714 0.0483805 0.0483895
0.0483973 0.0484051 0.0484129 0.0484207 0.0484283 0.0484651 0.0485021 0.0485392 0.0485764 0.048613
0.0486563 0.0486997 0.0487429 0.0487861 0.0488291 0.0488334 0.0488377 0.048842 0.0488463 0.0488506
0.0488914 0.0489321 0.0489729 0.0490136 0.0490541 0.0490977 0.0491412 0.0491849 0.0492284 0.0492714