# vtk DataFile Version 2.0
tracks
ASCII
DATASET POLYDATA
POINTS 17635 float
-1.001 1e-07 0.0011 -1.0008 9.8095e-08 0.00110001 -1.0006 9.61899e-08 0.00110001 -1.0004 9.42848e-08
0.00110002 -1.0002 9.23797e-08 0.00110003 -1 9.04745e-08 0.00110003 -0.998101 7.23796e-08 0.0011001
-0.996201 5.48283e-08 0.00110016 -0.994302 3.7273e-08 0.00110022 -0.992402 1.97137e-08 0.00110028 -0.99027
1.68606e-28 0.00110036 -0.985966 -3.9809e-08 0.0011005 -0.981662 -7.96414e-08 0.00110064 -0.977358 -1.19497e-07
0.00110078 -0.973054 -1.59376e-07 0.00110093 -0.96875 -1.99279e-07 0.00110107 -0.9625 -2.57123e-07 0.00110128
-0.95625 -3.15125e-07 0.00110148 -0.95 -3.7317e-07 0.00110169 -0.94375 -4.31259e-07 0.0011019 -0.9375
-4.89392e-07 0.00110211 -0.93125 -5.34378e-07 0.0011023 -0.925 -5.60319e-07 0.00110248 -0.91875 -5.8628e-07
0.00110267 -0.9125 -6.12261e-07 0.00110285 -0.90625 -6.3826e-07 0.00110303 -0.9 -6.63908e-07 0.00110321
-0.89375 -6.89946e-07 0.00110339 -0.8875 -7.16002e-07 0.00110358 -0.88125 -7.42078e-07 0.00110376 -0.875
-7.68174e-07 0.00110394 -0.86875 -7.75771e-07 0.00110411 -0.8625 -7.70303e-07 0.00110426 -0.85625 -7.6483e-07
0.00110441 -0.85 -7.59353e-07 0.00110456 -0.84375 -7.53872e-07 0.00110472 -0.8375 -7.47926e-07 0.00110487
-0.83125 -7.42448e-07 0.00110502 -0.825 -7.36966e-07 0.00110517 -0.81875 -7.3148e-07 0.00110533 -0.8125
-7.2599e-07 0.00110548 -0.80625 -7.11782e-07 0.00110561 -0.8 -6.91552e-07 0.00110573 -0.79375 -6.71307e-07
0.00110585 -0.7875 -6.51046e-07 0.00110596 -0.78125 -6.3077e-07 0.00110608 -0.775 -6.10063e-07 0.00110619
-0.76875 -5.89757e-07 0.00110631 -0.7625 -5.69435e-07 0.00110642 -0.75625 -5.49098e-07 0.00110654 -0.75
-5.28744e-07 0.00110666 -0.74375 -5.04971e-07 0.00110674 -0.7375 -4.76144e-07 0.00110679 -0.73125 -4.47297e-07
0.00110684 -0.725 -4.18429e-07 0.00110689 -0.71875 -3.89541e-07 0.00110694 -0.7125 -3.60372e-07 0.00110699
-0.70625 -3.31447e-07 0.00110704 -0.7 -3.025e-07 0.00110709 -0.69375 -2.73533e-07 0.00110713 -0.6875
-2.44544e-07 0.00110718 -0.68125 -2.03463e-07 0.00110719 -0.675 -1.50722e-07 0.00110714 -0.66875 -9.79453e-08
0.0011071 -0.6625 -4.51313e-08 0.00110706 -0.657163 2.06721e-14 0.00110702 -0.65698 1.54487e-09 0.00110702
-0.656798 3.08975e-09 0.00110702 -0.656615 4.63468e-09 0.00110702 -0.656433 6.17963e-09 0.00110702 -0.65625
7.72462e-09 0.00110701 -0.65 6.06068e-08 0.00110697 -0.64375 1.13544e-07 0.00110693 -0.6375 1.66528e-07
0.00110688 -0.63125 2.1956e-07 0.00110684 -0.625 2.72639e-07 0.0011068 -0.61875 3.27143e-07 0.0011067
-0.6125 3.71658e-07 0.00110652 -0.60625 4.16212e-07 0.00110635 -0.6 4.60807e-07 0.00110617 -0.59375
5.0544e-07 0.001106 -0.5875 5.49586e-07 0.00110582 -0.58125 5.9438e-07 0.00110565 -0.575 6.3922e-07
0.00110547 -0.56875 6.84106e-07 0.0011053 -0.5625 7.29039e-07 0.00110513 -0.55625 7.68116e-07 0.00110486
-0.55 8.07752e-07 0.00110445 -0.54375 8.47431e-07 0.00110404 -0.5375 8.87154e-07 0.00110363 -0.53125
9.26921e-07 0.00110322 -0.525 9.6538e-07 0.00110281 -0.51875 1.0055e-06 0.0011024 -0.5125 1.04568e-06
0.00110199 -0.50625 1.08592e-06 0.00110158 -0.5 1.12621e-06 0.00110117 -0.49375 1.1629e-06 0.00110057
-0.4875 1.20044e-06 0.00109969 -0.48125 1.23803e-06 0.00109881 -0.475 1.27567e-06 0.00109793 -0.46875
1.31335e-06 0.00109705 -0.4625 1.34835e-06 0.00109617 -0.45625 1.38684e-06 0.00109529 -0.45 1.4254e-06
0.00109442 -0.44375 1.46403e-06 0.00109354 -0.4375 1.50273e-06 0.00109266 -0.431249 1.5527e-06 0.0010914
-0.424999 1.61583e-06 0.00108954 -0.418749 1.67906e-06 0.00108768 -0.412499 1.74236e-06 0.00108583 -0.406249
1.80576e-06 0.00108398 -0.399998 1.86336e-06 0.00108214 -0.393747 1.9286e-06 0.00108029 -0.387496 1.99391e-06
0.00107845 -0.381246 2.05929e-06 0.00107661 -0.374995 2.12473e-06 0.00107478 -0.368743 2.19378e-06 0.00107204
-0.36249 2.25748e-06 0.00106789 -0.356238 2.3209e-06 0.00106377 -0.349986 2.38403e-06 0.00105966 -0.343734
2.44687e-06 0.00105556 -0.337478 2.49894e-06 0.00105148 -0.331222 2.56372e-06 0.00104741 -0.324967 2.62742e-06
0.00104336 -0.318711 2.69002e-06 0.00103932 -0.312455 2.75151e-06 0.0010353 -0.307236 2.80192e-06 0.0010303
-0.302017 2.84472e-06 0.00102269 -0.296798 2.88518e-06 0.00101514 -0.291579 2.92328e-06 0.00100764 -0.287286
2.95267e-06 0.00100151 -0.286058 2.96061e-06 0.00099977 -0.284829 2.96842e-06 0.000998032 -0.283601 2.9761e-06
0.000996296 -0.282373 2.98365e-06 0.000994564 -0.281144 2.99107e-06 0.000992835 -0.274873 3.03127e-06 0.000984022
-0.268603 3.06028e-06 0.000975286 -0.262332 3.08212e-06 0.000966627 -0.256061 3.0967e-06 0.000958045 -0.24979
3.10391e-06 0.000949538 -0.243518 3.02593e-06 0.000935953 -0.237246 2.9257e-06 0.00091287 -0.230975 2.80819e-06
0.000890369 -0.224703 2.67304e-06 0.000868437 -0.218432 2.51988e-06 0.000847059 -0.215291 2.41095e-06 0.0008366
-0.212151 2.20952e-06 0.000823824 -0.20901 1.98534e-06 0.00081124 -0.20587 1.73793e-06 0.000798844 -0.202729
1.46678e-06 0.000786634 -0.199591 1.44973e-06 0.000774671 -0.196452 1.1346e-06 0.000762816 -0.193313 7.94833e-07
0.000751137 -0.190174 4.29887e-07 0.00073963 -0.187035 3.92162e-08 0.000728294 -0.183909 -2.74643e-07 0.000714316
-0.180783 -6.1501e-07 0.000697207 -0.177657 -9.49555e-07 0.000680511 -0.17453 -1.27807e-06 0.000664219 -0.171404
-1.60035e-06 0.000648322 -0.16839 -1.4854e-06 0.000633358 -0.165376 -1.77631e-06 0.000618665 -0.162362 -1.9814e-06
0.000604331 -0.159348 -2.09818e-06 0.000590348 -0.155869 -2.12807e-06 0.000574603 -0.155867 -2.12799e-06 0.000574595
-0.155866 -2.12792e-06 0.000574587 -0.155864 -2.12784e-06 0.000574579 -0.155863 -2.12776e-06 0.000574572 -0.155862
-2.12769e-06 0.000574564 -0.152748 -1.95486e-06 0.000556854 -0.149635 -1.58102e-06 0.000536291 -0.146522 -1.12106e-06
0.000516502 -0.143408 -5.71388e-07 0.000497459 -0.140295 7.17034e-08 0.000479134 -0.137177 3.07016e-07 0.000461427
-0.134059 1.15076e-06 0.000444315 -0.130941 2.01521e-06 0.000427836 -0.127823 2.90162e-06 0.000411968 -0.124705
3.81127e-06 0.000396686 -0.122817 4.46101e-06 0.000387007 -0.12093 4.96042e-06 0.000386488 -0.119042 5.32979e-06
0.000386104 -0.117155 5.56422e-06 0.00038586 -0.115928 5.62559e-06 0.000385796 -0.114513 5.62559e-06 0.000385796
-0.113099 5.54716e-06 0.000385709 -0.111684 5.38824e-06 0.000385534 -0.11027 5.14671e-06 0.000385267 -0.108855
4.82045e-06 0.000384906 -0.105643 4.82045e-06 0.000384906 -0.10243 2.16312e-06 0.000383085 -0.0992168 -1.9566e-06
0.000380261 -0.0960039 -7.6719e-06 0.000376345 -0.092789 -1.51326e-05 0.000371232 -0.0897587 -1.51326e-05 0.000371232
-0.0867285 -3.19092e-05 0.000363843 -0.0836984 -5.61435e-05 0.000353169 -0.0806683 -9.08528e-05 0.000337882 -0.0774814
-0.000143397 0.00031474 -1.001 1e-07 0.0537316 -1.00093 8e-08 0.0537317 -1.00087 5.9981e-08
0.0537318 -1.0008 3.99431e-08 0.0537319 -1.00073 1.98863e-08 0.0537319 -1.00066 3.08036e-28 0.053732
-1.00053 -3.97737e-08 0.0537322 -1.0004 -7.96217e-08 0.0537324 -1.00027 -1.19544e-07 0.0537326 -1.00013
-1.59541e-07 0.0537328 -1 -1.99612e-07 0.0537329 -0.99375 -2.08677e-06 0.0537415 -0.9875 -3.96542e-06
0.0537501 -0.98125 -5.82338e-06 0.0537587 -0.975 -7.65252e-06 0.0537675 -0.96875 -9.4528e-06 0.0537764
-0.9625 -1.12216e-05 0.0537855 -0.95625 -1.28869e-05 0.0537945 -0.95 -1.44467e-05 0.0538034 -0.94375
-1.59007e-05 0.0538121 -0.9375 -1.72605e-05 0.0538208 -0.93125 -1.85405e-05 0.0538294 -0.925 -1.97124e-05
0.0538379 -0.91875 -2.07623e-05 0.0538462 -0.9125 -2.16839e-05 0.0538544 -0.90625 -2.24769e-05 0.0538622
-0.9 -2.31375e-05 0.0538698 -0.89375 -2.36949e-05 0.0538772 -0.8875 -2.41453e-05 0.0538843 -0.88125
-2.44886e-05 0.0538912 -0.875 -2.47241e-05 0.0538979 -0.86875 -2.48475e-05 0.0539045 -0.8625 -2.48964e-05
0.053911 -0.85625 -2.48745e-05 0.0539173 -0.85 -2.47861e-05 0.0539234 -0.84375 -2.46311e-05 0.0539292
-0.8375 -2.44068e-05 0.0539347 -0.83125 -2.41488e-05 0.05394 -0.825 -2.38539e-05 0.053945 -0.81875
-2.35219e-05 0.0539497 -0.8125 -2.31475e-05 0.0539543 -0.80625 -2.27193e-05 0.0539587 -0.8 -2.22571e-05
0.053963 -0.79375 -2.17666e-05 0.0539671 -0.7875 -2.12528e-05 0.0539709 -0.78125 -2.07157e-05 0.0539744
-0.775 -2.0153e-05 0.0539776 -0.76875 -1.95798e-05 0.0539805 -0.7625 -1.89942e-05 0.053983 -0.75625
-1.83961e-05 0.0539852 -0.75 -1.77825e-05 0.0539871 -0.74375 -1.71473e-05 0.0539888 -0.7375 -1.64815e-05
0.0539903 -0.73125 -1.57867e-05 0.0539915 -0.725 -1.50642e-05 0.0539923 -0.71875 -1.4314e-05 0.0539927
-0.7125 -1.35359e-05 0.0539926 -0.70625 -1.26946e-05 0.0539922 -0.7 -1.17892e-05 0.0539912 -0.69375
-1.08195e-05 0.0539898 -0.6875 -9.78207e-06 0.0539881 -0.68125 -8.67127e-06 0.053986 -0.675 -7.48953e-06
0.0539837 -0.66875 -6.24309e-06 0.0539809 -0.6625 -4.9358e-06 0.0539777 -0.65625 -3.56752e-06 0.0539739
-0.65313 -2.85402e-06 0.0539718 -0.65001 -2.13771e-06 0.0539695 -0.64689 -1.41848e-06 0.053967 -0.64377
-6.96329e-07 0.0539644 -0.640774 2.09021e-13 0.0539618 -0.637619 7.35986e-07 0.0539588 -0.634464 1.47497e-06
0.0539557 -0.631309 2.21697e-06 0.0539525 -0.628155 2.96181e-06 0.0539491 -0.625 3.70944e-06 0.0539456
-0.61875 5.19634e-06 0.0539386 -0.6125 6.6252e-06 0.0539311 -0.60625 8.00553e-06 0.0539229 -0.6
9.34301e-06 0.0539139 -0.59375 1.06375e-05 0.0539041 -0.5875 1.18899e-05 0.0538935 -0.58125 1.31134e-05
0.0538817 -0.575 1.43067e-05 0.0538689 -0.56875 1.54697e-05 0.0538549 -0.5625 1.66011e-05 0.05384
-0.55625 1.77007e-05 0.0538245 -0.55 1.88086e-05 0.0538081 -0.54375 1.9916e-05 0.0537905 -0.5375
2.10193e-05 0.0537713 -0.53125 2.21186e-05 0.0537505 -0.525 2.32158e-05 0.0537282 -0.51875 2.43021e-05
0.0537036 -0.5125 2.53733e-05 0.0536768 -0.50625 2.64294e-05 0.0536478 -0.5 2.74684e-05 0.0536169
-0.49375 2.84919e-05 0.0535848 -0.4875 2.95278e-05 0.053551 -0.48125 3.05711e-05 0.0535146 -0.475
3.16221e-05 0.0534749 -0.46875 3.26811e-05 0.0534319 -0.4625 3.37587e-05 0.0533856 -0.456249 3.49013e-05
0.0533344 -0.449999 3.60989e-05 0.0532784 -0.443749 3.73518e-05 0.0532174 -0.437499 3.86698e-05 0.0531527
-0.431248 4.00737e-05 0.0530854 -0.424998 4.15884e-05 0.0530143 -0.418747 4.31773e-05 0.0529377 -0.412497
[...]
POINT_DATA 17635
FIELD attributes 3
age 1 17635 float
0 1.00124e-05 2.00248e-05 3.00372e-05 4.00496e-05 5.0062e-05 0.00014515 0.000240243 0.000335337 0.00043043 0.000537167
0.000752651 0.000968136 0.00118362 0.00139911 0.00161459 0.0019275 0.0022404 0.00255331 0.00286622 0.00317913
0.00349206 0.00380502 0.00411799 0.00443095 0.00474391 0.00505687 0.00536984 0.0056828 0.00599577 0.00630873
0.00662172 0.00693475 0.00724777 0.00756079 0.00787382 0.00818684 0.00849986 0.00881289 0.00912591 0.00943894
0.00975199 0.0100651 0.0103782 0.0106913 0.0110043 0.0113174 0.0116305 0.0119436 0.0122567 0.0125698
0.0128829 0.0131961 0.0135092 0.0138224 0.0141355 0.0144487 0.0147618 0.015075 0.0153881 0.0157013
0.0160145 0.0163277 0.0166409 0.0169541 0.0172216 0.0172308 0.0172399 0.0172491 0.0172582 0.0172674
0.0175806 0.0178938 0.018207 0.0185202 0.0188335 0.0191467 0.01946 0.0197734 0.0200867 0.0204
0.0207133 0.0210266 0.0213399 0.0216532 0.0219665 0.0222799 0.0225933 0.0229067 0.0232201 0.0235335
0.0238469 0.0241603 0.0244737 0.0247872 0.0251006 0.025414 0.0257276 0.0260411 0.0263546 0.0266682
0.0269817 0.0272952 0.0276088 0.0279223 0.0282358 0.0285495 0.0288632 0.0291769 0.0294906 0.0298043
0.0301181 0.0304318 0.0307455 0.0310592 0.031373 0.0316869 0.0320009 0.032315 0.032629 0.032943
0.0332572 0.0335714 0.0338856 0.0341998 0.0345139 0.0347762 0.0350385 0.0353009 0.0355632 0.035779
0.0358407 0.0359025 0.0359642 0.036026 0.0360877 0.0364029 0.036718 0.0370332 0.0373483 0.0376634
0.0379788 0.0382959 0.0386129 0.0389299 0.0392467 0.0394053 0.039564 0.0397227 0.0398813 0.04004
0.0401985 0.040357 0.0405154 0.0406739 0.0408323 0.0409902 0.041148 0.0413059 0.0414637 0.0416214
0.0417735 0.0419255 0.0420775 0.0422295 0.0424049 0.0424049 0.042405 0.0424051 0.0424051 0.0424052
0.0425622 0.0427192 0.0428762 0.0430332 0.0431901 0.0433472 0.0435042 0.0436613 0.0438183 0.0439752
0.0440702 0.0441666 0.0442629 0.0443593 0.0444219 0.0444942 0.0445664 0.0446386 0.0447108 0.044783
0.0449471 0.0451111 0.045275 0.0454389 0.0456028 0.0457585 0.0459289 0.0461172 0.0463273 0.046577
0 3.48327e-06 6.96668e-06 1.04502e-05 1.39339e-05 1.73848e-05 2.42806e-05 3.11769e-05 3.80738e-05 4.49711e-05
5.1869e-05 0.00037615 0.000700549 0.00102508 0.00134976 0.00167459 0.00199956 0.00232468 0.00264995 0.00297537
0.00330095 0.00362668 0.0039526 0.00427869 0.00460494 0.00493137 0.00525797 0.00558473 0.00591165 0.00623873
0.00656599 0.00689343 0.00722105 0.00754884 0.0078768 0.00820491 0.00853318 0.00886162 0.00919023 0.00951901
0.00984797 0.0101771 0.0105065 0.010836 0.0111658 0.0114957 0.0118258 0.012156 0.0124864 0.0128171
0.0131478 0.0134788 0.01381 0.0141414 0.0144729 0.0148046 0.0151364 0.0154684 0.0158006 0.016133
0.0164656 0.0167984 0.0171315 0.0174648 0.0177983 0.018132 0.0182987 0.0184655 0.0186324 0.0187993
0.0189596 0.0191285 0.0192975 0.0194665 0.0196356 0.0198047 0.02014 0.0204755 0.0208114 0.0211474
0.0214838 0.0218204 0.0221573 0.0224945 0.0228321 0.0231699 0.023508 0.0238465 0.0241854 0.0245247
0.0248643 0.0252044 0.0255448 0.0258858 0.0262271 0.0265689 0.0269111 0.0272537 0.0275968 0.0279405
0.0282846 0.0286292 0.0289745 0.0293204 0.0296669 0.030014 0.0303617 0.03071 0.0310592 0.0314091
0.0317599 0.0321115 0.0324642 0.0328179 0.0331726 0.0335284 0.0338852 0.0342429 0.0346017 0.0349618
0.0353233 0.0356864 0.0360511 0.0364174 0.0367853 0.037155 0.0375261 0.0378986 0.0382724 0.0386483
0.0390276 0.039411 0.0397967 0.0401846 0.0405746 0.0409704 0.0411684 0.0413671 0.0415662 0.041766
0.0419679 0.0421693 0.042371 0.0425729 0.0427754 0.0429798 0.043184 0.0433887 0.0435938 0.0437989
0.0440078 0.044194 0.04438 0.0445659 0.0447517 0.0449527 0.04497 0.0449873 0.0450046 0.0450219
0.0450393 0.0452441 0.045449 0.0456541 0.0458594 0.0460665 0.0462663 0.0464664 0.0466668 0.0468673
0.047069 0.0472824 0.0474961 0.0477102 0.0479246 0.0481497 0.0483665 0.0485857 0.0487936 0.0489911
0.0491339 0.0491593 0.0491848 0.0492104 0.0492359 0.0492614 0.0495017 0.0497806 0.0501206 0.0505579
0.0510621 0.0514512 0.0518302 0.0522014 0.0526583 0.0532863 0.0534424 0.0536101 0.0537766 0.0539319
0.0554765 0 3.17828e-06 6.35657e-06 9.53488e-06 1.27132e-05 1.58913e-05 2.31155e-05 3.03399e-05 3.75643e-05
4.47888e-05 5.20133e-05 0.00037711 0.000702312 0.00102762 0.00135304 0.00167856 0.00200421 0.00232996 0.00265584
0.00298185 0.00330799 0.00363426 0.00396068 0.00428725 0.00461398 0.00494086 0.0052679 0.00559508 0.00592241
0.00624989 0.00657751 0.00690529 0.0072332 0.00756126 0.00788947 0.00821781 0.00854629 0.00887493 0.00920372
0.00953267 0.00986177 0.010191 0.0105204 0.01085 0.0111798 0.0115097 0.0118397 0.0121699 0.0125003
0.0128308 0.0131615 0.0134924 0.0138234 0.0141545 0.0144858 0.0148173 0.0151489 0.0154807 0.0158128
0.0161449 0.0164773 0.0168099 0.0171427 0.0174757 0.0178089 0.0181424 0.0182736 0.0184048 0.0185361
0.0186674 0.018793 0.0189969 0.019201 0.0194052 0.0196095 0.0198138 0.0201489 0.0204841 0.0208197
0.0211555 0.0214917 0.0218281 0.0221649 0.022502 0.0228395 0.0231773 0.0235154 0.023854 0.0241929
0.0245323 0.0248722 0.0252125 0.0255533 0.0258947 0.0262367 0.0265791 0.026922 0.0272655 0.0276096
0.0279542 0.0282996 0.0286457 0.0289928 0.0293408 0.0296895 0.0300391 0.0303895 0.0307409 0.0310933
0.0314468 0.0318016 0.032158 0.0325161 0.032876 0.0332372 0.0336002 0.0339648 0.0343313 0.0346995
0.0350696 0.0354426 0.0358188 0.0361997 0.0365835 0.0369698 0.0373612 0.0377546 0.0381524 0.0385546
0.0389611 0.0390918 0.0391497 0.0392077 0.0392657 0.0393238 0.0393823 0.039411 0.0394398 0.0394685
0.0394973 0.0395238 0.0397079 0.039893 0.0400791 0.0402662 0.0404583 0.0406803 0.0409039 0.041129
0.0413555 0.0415944 0.0418272 0.0420605 0.0422942 0.0425281 0.0427758 0.0428138 0.0428524 0.0428913
0.0429298 0.0429669 0.0431686 0.0433706 0.0435727 0.0437749 0.0439887 0.0442373 0.0445293 0.0448814
0.0451977 0.0454657 0.0454988 0.0455308 0.0455631 0.0455955 0.0456269 0.0458873 0.0461899 0.0465687
0.0470764 0.0474777 0.0478022 0.0481014 0.0484136 0.0487385 0.0490141 0.0492583 0.049514 0.0497824
0.0500994 0.0504275 0.0510838 0.0514856 0.0518835 0.0523107 0.052905 0.0537874 0.0542148 0.0546536
0.0551385 0.0569803 0.0572148 0.0574701 0.05775 0.0580592 0.0584274 0.0593185 0.0598113 0.0603672
0.0610049 0.0653402 0 3.47992e-06 6.95986e-06 1.04398e-05 1.39198e-05 1.74019e-05 2.4331e-05 3.12601e-05
3.81893e-05 4.51187e-05 5.20481e-05 0.000377364 0.000702769 0.00102826 0.00135385 0.00167952 0.00200529 0.00233118
0.00265719 0.00298331 0.00330955 0.0036359 0.00396239 0.00428904 0.00461582 0.00494275 0.00526982 0.00559703
0.00592439 0.00625189 0.00657953 0.00690732 0.00723526 0.00756334 0.00789156 0.00821992 0.00854844 0.0088771
0.00920592 0.0095349 0.00986403 0.0101933 0.0105228 0.0108524 0.0111821 0.0115121 0.0118422 0.0121724
0.0125029 0.0128334 0.0131642 0.0134951 0.0138261 0.0141574 0.0144888 0.0148203 0.015152 0.015484
0.0158161 0.0161484 0.0164809 0.0168136 0.0171466 0.0174798 0.0178132 0.0181469 0.0181679 0.0181889
0.0182098 0.0182308 0.0182515 0.0185646 0.0188779 0.0191915 0.0195054 0.0198195 0.0201548 0.0204905
0.0208265 0.0211628 0.0214995 0.0218365 0.0221738 0.0225116 0.0228498 0.0231884 0.0235273 0.0238668
0.0242068 0.0245474 0.0248884 0.02523 0.0255723 0.0259152 0.0262588 0.026603 0.0269479 0.0272936
0.0276402 0.0279877 0.028336 0.0286852 0.0290357 0.0293874 0.0297403 0.0300944 0.0304499 0.0308071
0.031166 0.0315266 0.0318892 0.0319992 0.0321094 0.0322199 0.0323305 0.0324106 0.032674 0.0329388
0.0332048 0.0334722 0.0337412 0.03412 0.0345031 0.0348904 0.0352821 0.0356801 0.0360835 0.0364934
0.0369119 0.0373391 0.0377827 0.0378083 0.0378338 0.0378594 0.037885 0.0379086 0.0381123 0.0383181
0.038526 0.0387363 0.0389545 0.0392009 0.0394527 0.0397081 0.0399667 0.0401215 0.0401468 0.0401722
0.0401977 0.0402231 0.0402489 0.0405142 0.0407843 0.0410588 0.0413373 0.0416591 0.0419423 0.0422264
0.042511 0.0427955 0.0429582 0.042999 0.0430397 0.0430804 0.0431212 0.0431629 0.0434538 0.0437683
0.0441251 0.0445371 0.045059 0.0453622 0.0456704 0.0459816 0.0463187 0.0466888 0.0474355 0.0478872
0.0483287 0.0487598 0.0500307 0.050319 0.0506126 0.0509092 0.05121 0.0515401 0.052346 0.0527829
0.0531654 0.0535781 0.0587888 0 3.4921e-06 6.98421e-06 1.04763e-05 1.39685e-05 1.74612e-05 2.43815e-05
3.13019e-05 3.82223e-05 4.51428e-05 5.20634e-05 0.000377472 0.00070297 0.00102856 0.00135423 0.00168 0.00200588
0.00233189 0.00265801 0.00298424 0.00331058 0.00363704 0.00396363 0.00429037 0.00461724 0.00494425 0.00527141
0.0055987 0.00592613 0.0062537 0.00658141 0.00690927 0.00723727 0.00756541 0.00789369 0.00822212 0.00855068
0.00887941 0.00920829 0.00953733 0.00986652 0.0101959 0.0105254 0.0108551 0.0111849 0.0115149 0.0118451
0.0121754 0.0125059 0.0128366 0.0131674 0.0134984 0.0138296 0.014161 0.0144925 0.0148242 0.0151561
0.0154882 0.0158205 0.016153 0.0164857 0.0168187 0.0171519 0.0174854 0.0178191 0.0181531 0.018305
0.018457 0.018609 0.0187611 0.0188968 0.0190828 0.0192689 0.0194552 0.0196415 0.0198279 0.0201638
0.0205 0.0208365 0.0211735 0.0215108 0.0218484 0.0221865 0.0225251 0.0228641 0.0232036 0.0235435
0.0238841 0.0242253 0.0245672 0.0249097 0.0252527 0.0255965 0.0259411 0.0262865 0.0266328 0.0269799
0.0273282 0.0276776 0.0280282 0.0283799 0.0287327 0.0290869 0.0294428 0.0298004 0.0301597 0.030521
0.0308848 0.0312511 0.03162 0.0319915 0.0323656 0.032743 0.0331243 0.0335099 0.0339006 0.0342958
0.0346997 0.0351126 0.0355349 0.0359687 0.0361904 0.0364154 0.0366438 0.0368756 0.0371134 0.0371989
0.0372854 0.0373726 0.0374605 0.0375182 0.0376882 0.0378611 0.0380369 0.0381156 0.038401 0.038679
0.0389673 0.039266 0.0395754 0.0399241 0.0402636 0.0406189 0.0409893 0.0413738 0.0418354 0.0418398
0.0418443 0.0418487 0.0418532 0.0418576 0.0424086 0.0430431 0.0438058 0.0447102 0.0456124 0.0462191
0.046845 0.0474513 0.0482224 0.0506877 0 3.57504e-06 7.1501e-06 1.07252e-05 1.43003e-05 1.78762e-05
2.47099e-05 3.15438e-05 3.83776e-05 4.52115e-05 5.20455e-05 0.000377342 0.000702726 0.0010282 0.00135377 0.00167943
0.0020052 0.00233108 0.00265707 0.00298317 0.0033094 0.00363574 0.00396223 0.00428886 0.00461564 0.00494257
0.00526965 0.00559688 0.00592425 0.00625177 0.00657944 0.00690726 0.00723523 0.00756335 0.00789162 0.00822004
0.00854861 0.00887735 0.00920624 0.0095353 0.00986453 0.0101939 0.0105235 0.0108532 0.0111831 0.0115132
0.0118435 0.0121739 0.0125045 0.0128352 0.0131661 0.0134973 0.0138285 0.01416 0.0144917 0.0148236
0.0151556 0.0154879 0.0158204 0.0161531 0.016486 0.0166369 0.0167878 0.0169387 0.0170897 0.0172057
0.0173954 0.0175852 0.0177751 0.0179651 0.0181551 0.0184897 0.0188246 0.0191599 0.0194954 0.0198313
0.0201676 0.0205042 0.0208413 0.0211787 0.0215165 0.0218547 0.0221935 0.0225327 0.0228724 0.0232126
0.0235534 0.0238949 0.024237 0.0245799 0.0249234 0.0252676 0.0256128 0.0259588 0.0263057 0.0266535
0.0270024 0.0273526 0.0277042 0.0280571 0.0284112 0.0287669 0.0291245 0.0294841 0.0298456 0.0302092
0.0305756 0.0309451 0.0313178 0.0316935 0.0320724 0.0324206 0.0327732 0.0331303 0.033492 0.0335784
0.033672 0.0337659 0.0338601 0.0339547 0.0340497 0.0344665 0.0348973 0.0353432 0.0358075 0.0362903
0.0365418 0.0368005 0.0370671 0.037342 0.0376264 0.03792 0.0382294 0.0385559 0.038901 0.0392691
0.0396475 0.0400829 0.0405981 0.0411682 0.0417885 0.042238 0.0427739 0.0434326 0.0442734 0.045586
0.0460771 0.0466695 0.0474021 0.0483207 0.050641 0 3.72368e-06 7.44738e-06 1.11711e-05 1.48948e-05
1.86208e-05 2.53029e-05 3.1985e-05 3.86672e-05 4.53495e-05 5.20318e-05 0.000377242 0.000702548 0.00102796 0.00135349
0.00167913 0.00200488 0.00233075 0.00265674 0.00298286 0.00330911 0.00363547 0.00396198 0.00428864 0.00461543
0.00494238 0.00526947 0.0055967 0.00592409 0.00625162 0.0065793 0.00690714 0.00723513 0.00756327 0.00789158
0.00822003 0.00854864 0.00887742 0.00920637 0.00953548 0.00986476 0.0101942 0.0105238 0.0108536 0.0111836
0.0115138 0.0118441 0.0121746 0.0125053 0.0128362 0.0131672 0.0134985 0.0138299 0.0141615 0.0144933
0.0148254 0.0148674 0.0149094 0.0149514 0.0149934 0.0150319 0.0153229 0.0156141 0.0159055 0.0161971
0.0164889 0.0168223 0.0171559 0.0174899 0.0178242 0.0181587 0.0184936 0.0188288 0.0191643 0.0195002
0.0198364 0.020173 0.02051 0.0208473 0.0211851 0.0215233 0.021862 0.0222011 0.0225407 0.0228809
0.0232216 0.0235629 0.0239048 0.0242474 0.0245908 0.0249348 0.0252796 0.0256254 0.0259721 0.0263197
0.0266683 0.0270179 0.0273689 0.0277212 0.0280749 0.02843 0.0287867 0.0291456 0.0295065 0.0298695
0.0302347 0.0306027 0.0309738 0.0313482 0.0317258 0.0321069 0.0324404 0.0327784 0.033121 0.0334684
0.0335144 0.0336316 0.0337494 0.0338677 0.0339866 0.0341059 0.034529 0.0349664 0.0354215 0.0358937
0.0363841 0.0366447 0.0369135 0.0371918 0.0374814 0.0377831 0.0381056 0.0384464 0.0388073 0.0391907
0.039601 0.0401098 0.040715 0.0414891 0.0425449 0.044394 0 3.70008e-06 7.40017e-06 1.11003e-05
1.48004e-05 1.85026e-05 2.52078e-05 3.19131e-05 3.86185e-05 4.53239e-05 5.20294e-05 0.000377225 0.00070251 0.00102789
0.00135338 0.00167896 0.00200464 0.00233044 0.00265635 0.00298238 0.00330852 0.00363478 0.0039612 0.00428776
0.00461448 0.00494136 0.00526839 0.00559557 0.00592291 0.0062504 0.00657805 0.00690585 0.00723382 0.00756193
0.00789021 0.00821865 0.00854724 0.00887601 0.00920495 0.00953407 0.00986336 0.0101928 0.0105225 0.0108523
0.0111823 0.0115125 0.0118428 0.0121734 0.0125041 0.012835 0.0131661 0.0134485 0.0137311 0.0140138
0.0142966 0.0144984 0.0145636 0.0146288 0.014694 0.0147592 0.0148245 0.0151567 0.0154892 0.0158219
0.0161549 0.0164881 0.0168215 0.0171552 0.0174892 0.0178235 0.0181581 0.018493 0.0188283 0.0191638
0.0194997 0.019836 0.0201726 0.0205096 0.020847 0.0211848 0.0215229 0.0218615 0.0222006 0.0225401
0.0228802 0.0232208 0.0235619 0.0239037 0.0242462 0.0245893 0.0249331 0.0252776 0.025623 0.0259692
0.0263163 0.0266643 0.0270133 0.0273635 0.027715 0.0280677 0.0284217 0.028777 0.0291342 0.0294931
0.0298539 0.0302166 0.0305817 0.0309495 0.0313202 0.0316936 0.0320698 0.0324496 0.0328341 0.0332232
0.0336173 0.0340166 0.0341713 0.0343278 0.0344861 0.0346459 0.0346653 0.0349553 0.0352503 0.0355502
0.0358553 0.0361667 0.0363837 0.0366051 0.0368313 0.0370624 0.0371284 0.0371799 0.0372317 0.0372837
0.0373359 0.0373885 0.037652 0.0379255 0.0382095 0.0385049 0.0388236 0.039153 0.0394972 0.0398577
0.0402359 0.0406912 0.0410665 0.0414891 0.0419912 0.042596 0.0432555 0.0437792 0.0443534 0.0449661
0.0457101 0.0477732 0 3.63838e-06 7.27678e-06 1.09152e-05 1.45536e-05 1.81934e-05 2.49607e-05 3.1728e-05
3.84954e-05 4.52628e-05 5.20304e-05 0.000377234 0.000702525 0.0010279 0.00135339 0.00167898 0.00200469 0.00233052
0.00265648 0.00298257 0.00330877 0.0036351 0.00396158 0.00428821 0.00461498 0.0049419 0.00526897 0.00559619
0.00592357 0.00625109 0.00657877 0.0069066 0.00723459 0.00756274 0.00789104 0.00821951 0.00854814 0.00887694
0.00920591 0.00953505 0.00986437 0.0101939 0.0105235 0.0108534 0.0111834 0.0115136 0.011844 0.0121746
0.0125054 0.0128363 0.0131674 0.0134987 0.0138302 0.0141619 0.0144937 0.0147665 0.0147783 0.0147902
0.0148021 0.0148139 0.0148258 0.0151581 0.0154905 0.0158232 0.0161562 0.0164894 0.0168228 0.0171565
0.0174905 0.0178247 0.0181593 0.0184941 0.0188293 0.0191647 0.0195006 0.0198367 0.0201732 0.02051
0.0208473 0.0211849 0.0215228 0.0218612 0.0221999 0.0225392 0.0228789 0.023219 0.0235597 0.023901
0.0242429 0.0245854 0.0249284 0.0252721 0.0256165 0.0259616 0.0263075 0.0266542 0.0270018 0.0273504
0.0277001 0.0280508 0.0284025 0.0287552 0.0291093 0.0294647 0.0298214 0.0301799 0.0305401 0.0309025
0.0312673 0.0316339 0.0320026 0.0323738 0.0327478 0.0331248 0.0335046 0.0338885 0.0342776 0.0346738
0.0350769 0.0354864 0.0359032 0.0360806 0.0362596 0.0364402 0.0366224 0.0367006 0.0367586 0.0368168
0.0368752 0.0369337 0.0369926 0.0372192 0.037449 0.0376821 0.0379184 0.0381628 0.03841 0.0386641
0.0389236 0.0391875 0.0394665 0.0395353 0.0396045 0.0396741 0.0397441 0.0397966 0.0400166 0.0402403
0.0404677 0.0406986 0.0409571 0.0412871 0.041622 0.0419607 0.0423024 0.0426941 0.0427254 0.042756
0.0427864 0.0428176 0.0428477 0.0432438 0.0436682 0.0441536 0.0447221 0.0453771 0.0457032 0.0460391
0.046384 0.0467353 0.0471492 0.0477968 0.0482142 0.0485422 0.0489121 0.0526545 0 3.64466e-06
7.28934e-06 1.0934e-05 1.45787e-05 1.8226e-05 2.49844e-05 3.17429e-05 3.85015e-05 4.52601e-05 5.20188e-05 0.000377149
0.000702369 0.00102768 0.00135308 0.00167857 0.00200417 0.00232989 0.00265574 0.00298171 0.00330781 0.00363403
0.00396041 0.00428694 0.00461362 0.00494045 0.00526745 0.0055946 0.00592191 0.00624938 0.00657699 0.00690476
0.00723269 0.00756079 0.00788904 0.00821745 0.00854602 0.00887478 0.00920371 0.00953281 0.0098621 0.0101916
0.0105212 0.010851 0.011181 0.0115112 0.0118415 0.012172 0.0125027 0.0128336 0.0131647 0.0133696
0.0135746 0.0137797 0.0139848 0.0141248 0.0142644 0.014404 0.0145436 0.0146832 0.0148229 0.015155
0.0154874 0.0158201 0.0161529 0.016486 0.0168193 0.0171529 0.0174867 0.0178208 0.0181552 0.0184899
0.0188249 0.0191601 0.0194957 0.0198316 0.0201679 0.0205044 0.0208413 0.0211786 0.0215161 0.0218541
0.0221924 0.0225311 0.0228703 0.0232099 0.0235499 0.0238904 0.0242315 0.0245731 0.0249153 0.0252579
0.0256012 0.0259451 0.0262896 0.0266348 0.0269806 0.0273273 0.0276748 0.0280231 0.0283723 0.0287221
0.0290729 0.0294247 0.0297777 0.0301318 0.030487 0.0308438 0.0312021 0.0315619 0.0319232 0.032286
0.0326503 0.0330165 0.0333847 0.0337553 0.0341286 0.0345052 0.034885 0.0352681 0.0356546 0.0360442
0.0364371 0.0368334 0.0372349 0.037645 0.0377019 0.0377588 0.0378159 0.037873 0.0379217 0.0380771
0.0382332 0.0383901 0.0385478 0.0387074 0.0389261 0.0391464 0.0393688 0.0395933 0.0398249 0.039924
0.0400235 0.0401235 0.0402241 0.040295 0.0404382 0.0405824 0.0407269 0.0408717 0.0410206 0.0412614
0.0415032 0.0417458 0.0419892 0.0422286 0.0422325 0.0422364 0.0422403 0.0422442 0.0422481 0.0424926
0.0427376 0.0429828 0.0432282 0.0434969 0.0437526 0.0440533 0.0444046 0.0447232 0.0450007 0.0450291
0.0450569 0.0450849 0.0451131 0.0451405 0.0454179 0.0457454 0.0461602 0.0467078 0.0470966 0.0473478
0.0475882 0.0478376 0.0480961 0.0483348 0.0485906 0.0488615 0.0491945 0.0495612 0.049781 0.0499203
0.050028 0.0501233 0.0502176 0.0503195 0.0504553 0.0505889 0.0507204 0.0508531 0.0509938 0.0511806
0.0513022 0.051395 0.0514979 0.0516155 0.0517402 0.0518655 0.0519911 0.0521191 0.0522604 0.0525336
0.0526957 0.0528268 0.0529606 0.0531012 0.0531089 0.0531164 0.0531238 0.0531312 0.0531386 0.0531568
0.0531752 0.0531937 0.0532125 0.0532323 0.053281 0.053331 0.0533824 0.0534352 0.0534881 0.0535154
0.0535398 0.053564 0.0535878 0.053611 0.0536723 0.0537344 0.0537986 0.0538654 0.0539323 0.0540094
0.0540678 0.0541266 0.0541775 0.0542259 0.054245 0.054262 0.0542772 0.0542932 0.0543098 0.0543604
0.0544129 0.0544676 0.0545319 0.0545947 0.0546727 0.0547244 0.05477 0.0548114 0.054856 0.0548733
0.0548887 0.0549027 0.0549167 0.054932 0.0549773 0.0550246 0.055074 0.0551258 0.0551811 0.0552219
0.055252 0.055276 0.0553003 0.0553307 0.0553737 0.0554189 0.0554662 0.0555162 0.0555711 0.055654
0.0557043 0.055747 0.055787 0.0558304 0.0558565 0.0558776 0.0558954 0.0559135 0.0559352 0.0559788
0.0560251 0.0560741 0.0561261 0.0561853 0.0562676 0.0563186 0.05636 0.0563981 0.0564364 0.0564487
0.0564601 0.0564707 0.0564811 0.0564925 0.0565383 0.0565866 0.0566386 0.0566953 0.0567571 0.0568261
0.0568727 0.056914 0.0569524 0.0569894 0.0569944 0.0569991 0.0570037 0.0570083 0.0570131 0.0570599
0.0571096 0.0571627 0.057225 0.0572893 0.0573551 0.057401 0.0574413 0.0574795 0.057517 0.0575328
0.0575473 0.0575612 0.0575751 0.0575893 0.0576177 0.0576462 0.0576746 0.0577031 0.0577314 0.0577774
0.0578235 0.0578775 0.0579327 0.0579821 0.0580035 0.0580223 0.0580399 0.0580576 0.0580759 0.0581003
0.0581247 0.0581491 0.0581734 0.0581976 0.0582442 0.0582908 0.0583375 0.0583849 0.0584358 0.0584671
0.0584932 0.0585186 0.058544 0.0585708 0.0585858 0.0586009 0.0586159 0.0586309 0.0586459 0.0586886
0.0587313 0.0587741 0.058817 0.0588595 0.0589046 0.0589499 0.0589952 0.0590406 0.0590858 0.0590914