# vtk DataFile Version 2.0
tracks
ASCII
DATASET POLYDATA
POINTS 4310 float
-1.001 1e-07 0.0011 -1.0008 9.98052e-08 0.0011 -1.0006 9.96104e-08 0.0011 -1.0004 9.94156e-08
0.0011 -1.0002 9.92208e-08 0.0011 -1 9.90261e-08 0.0011 -0.99375 9.29372e-08 0.00110002
-0.9875 8.74405e-08 0.00110003 -0.98125 8.19435e-08 0.00110004 -0.975 7.64463e-08 0.00110005 -0.96875
7.09489e-08 0.00110006 -0.9625 6.54492e-08 0.00110007 -0.95625 5.99521e-08 0.00110009 -0.95 5.44547e-08
0.0011001 -0.94375 4.8957e-08 0.00110011 -0.9375 4.3459e-08 0.00110012 -0.93125 3.76158e-08 0.00110013
-0.925 3.06741e-08 0.00110014 -0.91875 2.3732e-08 0.00110015 -0.9125 1.67895e-08 0.00110016 -0.90625
9.84654e-09 0.00110016 -0.904477 7.87723e-09 0.00110017 -0.902705 5.90805e-09 0.00110017 -0.900932 3.93883e-09
0.00110017 -0.89916 1.96958e-09 0.00110017 -0.897387 1.43414e-23 0.00110018 -0.89291 -4.97456e-09 0.00110018
-0.888432 -9.94942e-09 0.00110019 -0.883955 -1.49246e-08 0.00110019 -0.879477 -1.99e-08 0.0011002 -0.875
-2.48757e-08 0.00110021 -0.86875 -3.39088e-08 0.00110021 -0.8625 -4.43641e-08 0.00110022 -0.85625 -5.48204e-08
0.00110022 -0.85 -6.52777e-08 0.00110022 -0.84375 -7.5736e-08 0.00110023 -0.8375 -8.61884e-08 0.00110023
-0.83125 -9.665e-08 0.00110024 -0.825 -1.07113e-07 0.00110024 -0.81875 -1.17577e-07 0.00110024 -0.8125
-1.28041e-07 0.00110025 -0.80625 -1.38632e-07 0.00110025 -0.8 -1.48868e-07 0.00110025 -0.79375 -1.59104e-07
0.00110025 -0.7875 -1.69342e-07 0.00110025 -0.78125 -1.79582e-07 0.00110025 -0.775 -1.898e-07 0.00110025
-0.76875 -2.00045e-07 0.00110025 -0.7625 -2.10291e-07 0.00110025 -0.75625 -2.20539e-07 0.00110024 -0.75
-2.30788e-07 0.00110024 -0.74375 -2.40674e-07 0.00110024 -0.7375 -2.50042e-07 0.00110023 -0.73125 -2.59412e-07
0.00110022 -0.725 -2.68783e-07 0.00110022 -0.71875 -2.78156e-07 0.00110021 -0.7125 -2.87487e-07 0.0011002
-0.70625 -2.96868e-07 0.00110019 -0.7 -3.06251e-07 0.00110018 -0.69375 -3.15636e-07 0.00110017 -0.6875
-3.25023e-07 0.00110017 -0.68125 -3.33389e-07 0.00110015 -0.675 -3.40377e-07 0.00110013 -0.66875 -3.47366e-07
0.00110011 -0.6625 -3.54357e-07 0.00110008 -0.65625 -3.61349e-07 0.00110006 -0.65 -3.68267e-07 0.00110004
-0.64375 -3.75274e-07 0.00110001 -0.6375 -3.82281e-07 0.00109999 -0.63125 -3.89291e-07 0.00109997 -0.625
-3.96301e-07 0.00109994 -0.61875 -4.01614e-07 0.00109991 -0.6125 -4.05554e-07 0.00109985 -0.60625 -4.09495e-07
0.0010998 -0.6 -4.13437e-07 0.00109974 -0.59375 -4.1738e-07 0.00109968 -0.5875 -4.21203e-07 0.00109963
-0.58125 -4.25168e-07 0.00109957 -0.575 -4.29135e-07 0.00109952 -0.56875 -4.33103e-07 0.00109946 -0.5625
-4.37071e-07 0.00109941 -0.55625 -4.40639e-07 0.00109933 -0.55 -4.44903e-07 0.00109921 -0.54375 -4.49168e-07
0.0010991 -0.5375 -4.53435e-07 0.00109898 -0.53125 -4.57703e-07 0.00109887 -0.525 -4.61785e-07 0.00109876
-0.51875 -4.66096e-07 0.00109864 -0.5125 -4.7041e-07 0.00109853 -0.50625 -4.74725e-07 0.00109841 -0.5
-4.79042e-07 0.0010983 -0.49375 -4.8559e-07 0.00109814 -0.4875 -4.95108e-07 0.0010979 -0.48125 -5.0463e-07
0.00109767 -0.475 -5.14156e-07 0.00109743 -0.46875 -5.23687e-07 0.00109719 -0.4625 -5.32898e-07 0.00109696
-0.45625 -5.42525e-07 0.00109672 -0.45 -5.52159e-07 0.00109649 -0.44375 -5.618e-07 0.00109625 -0.4375
-5.71449e-07 0.00109601 -0.431249 -5.84198e-07 0.00109567 -0.424999 -6.01126e-07 0.00109515 -0.418749 -6.18072e-07
0.00109463 -0.412499 -6.35034e-07 0.00109412 -0.406249 -6.52013e-07 0.0010936 -0.399998 -6.68311e-07 0.00109309
-0.393747 -6.85573e-07 0.00109257 -0.387496 -7.02884e-07 0.00109205 -0.381246 -7.20245e-07 0.00109154 -0.374995
-7.37657e-07 0.00109102 -0.368743 -7.61154e-07 0.00109025 -0.36249 -7.93462e-07 0.00108907 -0.356238 -8.25926e-07
0.00108789 -0.349986 -8.58546e-07 0.00108671 -0.343734 -8.91322e-07 0.00108554 -0.337478 -9.2173e-07 0.00108436
-0.331222 -9.56011e-07 0.00108319 -0.324967 -9.9076e-07 0.00108201 -0.318711 -1.02598e-06 0.00108084 -0.312455
-1.06166e-06 0.00107967 -0.306193 -1.1101e-06 0.00107793 -0.299931 -1.17559e-06 0.00107475 -0.293668 -1.24216e-06
0.00107159 -0.287406 -1.30982e-06 0.00106843 -0.281144 -1.37856e-06 0.00106529 -0.274873 -1.43407e-06 0.00106215
-0.268602 -1.51132e-06 0.00105901 -0.262331 -1.59086e-06 0.00105589 -0.25606 -1.67271e-06 0.00105277 -0.249789
-1.75686e-06 0.00104966 -0.243518 -1.83648e-06 0.00104559 -0.237246 -1.9561e-06 0.00103794 -0.230974 -2.08026e-06
0.00103035 -0.224702 -2.20899e-06 0.0010228 -0.21843 -2.34231e-06 0.00101532 -0.215289 -2.40812e-06 0.00101161
-0.212149 -2.46946e-06 0.00100767 -0.209008 -2.53328e-06 0.00100375 -0.205868 -2.59959e-06 0.000999841 -0.202727
-2.6684e-06 0.000995952 -0.199588 -2.69226e-06 0.000992062 -0.196449 -2.81813e-06 0.000988182 -0.19331 -2.94938e-06
0.000984317 -0.190171 -3.08603e-06 0.000980467 -0.187032 -3.22813e-06 0.000976632 -0.183906 -3.37505e-06 0.000971932
-0.18078 -3.52409e-06 0.000966264 -0.177653 -3.66982e-06 0.000960628 -0.174527 -3.81221e-06 0.000955025 -0.171401
-3.95125e-06 0.000949455 -0.168293 -3.96422e-06 0.000943936 -0.165185 -4.0935e-06 0.000938443 -0.162078 -4.19973e-06
0.000932983 -0.15897 -4.28273e-06 0.000927556 -0.155862 -4.34236e-06 0.000922162 -0.15535 -4.34555e-06 0.000921007
-0.154838 -4.34524e-06 0.000919915 -0.154325 -4.34179e-06 0.000918873 -0.153813 -4.33781e-06 0.000917832 -0.153336
-4.3336e-06 0.000916864 -0.150728 -4.30801e-06 0.000911582 -0.148121 -4.26843e-06 0.000906326 -0.145514 -4.21474e-06
0.000901097 -0.142906 -4.14684e-06 0.000895894 -0.140299 -4.06462e-06 0.000890717 -0.137183 -4.03492e-06 0.000884584
-0.134066 -3.89526e-06 0.000878453 -0.13095 -3.7565e-06 0.000872364 -0.127834 -3.61863e-06 0.000866318 -0.124718
-3.48166e-06 0.000860314 -0.123744 -3.42376e-06 0.000858746 -0.12277 -3.37726e-06 0.000858713 -0.121796 -3.34243e-06
0.000858688 -0.120822 -3.31936e-06 0.000858671 -0.1199 -3.3087e-06 0.000858663 -0.117677 -3.3087e-06 0.000858663
-0.115453 -3.36862e-06 0.000858618 -0.11323 -3.48921e-06 0.000858528 -0.111007 -3.67121e-06 0.000858392 -0.108784
-3.91536e-06 0.000858209 -0.105592 -3.91536e-06 0.000858209 -0.102399 -4.78747e-06 0.000858307 -0.0992069 -5.98903e-06
0.000858442 -0.0960145 -7.52731e-06 0.000858614 -0.0928217 -9.40993e-06 0.000858825 -0.0899041 -9.40993e-06 0.000858825
-0.0869865 -1.38418e-05 0.000857928 -0.0840689 -1.97914e-05 0.000856723 -0.0811513 -2.76808e-05 0.000855126 -0.0782069
-3.8213e-05 0.000852993 -1.001 1e-07 0.0537316 -1.0008 9.41244e-08 0.0537316 -1.0006 8.82323e-08
0.0537316 -1.0004 8.23237e-08 0.0537316 -1.0002 7.63987e-08 0.0537316 -1 7.04572e-08 0.0537316
-0.999527 5.63658e-08 0.0537317 -0.999054 4.22938e-08 0.0537317 -0.998581 2.82413e-08 0.0537317 -0.998108
1.42083e-08 0.0537318 -0.997628 4.65302e-28 0.0537318 -0.991853 -1.70863e-07 0.0537322 -0.986077 -3.38819e-07
0.0537325 -0.980301 -5.0397e-07 0.0537329 -0.974526 -6.66328e-07 0.0537333 -0.96875 -8.25894e-07 0.0537336
-0.9625 -9.9555e-07 0.053734 -0.95625 -1.16815e-06 0.0537344 -0.95 -1.34368e-06 0.0537347 -0.94375
-1.52216e-06 0.0537351 -0.9375 -1.70321e-06 0.0537355 -0.93125 -1.8863e-06 0.0537359 -0.925 -2.07571e-06
0.0537363 -0.91875 -2.27079e-06 0.0537366 -0.9125 -2.47111e-06 0.053737 -0.90625 -2.67666e-06 0.0537373
-0.9 -2.88747e-06 0.0537377 -0.89375 -3.10576e-06 0.053738 -0.8875 -3.3315e-06 0.0537383 -0.88125
-3.56469e-06 0.0537387 -0.875 -3.80718e-06 0.053739 -0.86875 -4.0617e-06 0.0537392 -0.8625 -4.32444e-06
0.0537395 -0.85625 -4.59263e-06 0.0537398 -0.85 -4.86443e-06 0.05374 -0.84375 -5.13983e-06 0.0537402
-0.8375 -5.41887e-06 0.0537404 -0.83125 -5.69721e-06 0.0537406 -0.825 -5.9748e-06 0.0537407 -0.81875
-6.25165e-06 0.0537408 -0.8125 -6.52836e-06 0.0537409 -0.80625 -6.8059e-06 0.053741 -0.8 -7.08147e-06
0.0537411 -0.79375 -7.35506e-06 0.0537411 -0.7875 -7.62668e-06 0.0537411 -0.78125 -7.89635e-06 0.0537411
-0.775 -8.16414e-06 0.053741 -0.76875 -8.43058e-06 0.053741 -0.7625 -8.6956e-06 0.0537408 -0.75625
-8.9592e-06 0.0537407 -0.75 -9.22114e-06 0.0537405 -0.74375 -9.48117e-06 0.0537403 -0.7375 -9.73831e-06
0.0537401 -0.73125 -9.99319e-06 0.0537398 -0.725 -1.02463e-05 0.0537395 -0.71875 -1.04975e-05 0.0537391
-0.7125 -1.07471e-05 0.0537387 -0.70625 -1.09924e-05 0.0537383 -0.7 -1.12333e-05 0.0537377 -0.69375
-1.14698e-05 0.0537371 -0.6875 -1.17013e-05 0.0537365 -0.68125 -1.19272e-05 0.0537358 -0.675 -1.21453e-05
0.0537351 -0.66875 -1.23559e-05 0.0537343 -0.6625 -1.25594e-05 0.0537334 -0.65625 -1.27557e-05 0.0537323
-0.65 -1.29452e-05 0.0537312 -0.64375 -1.31263e-05 0.05373 -0.6375 -1.32989e-05 0.0537286 -0.63125
-1.34629e-05 0.0537271 -0.625 -1.36178e-05 0.0537254 -0.61875 -1.37634e-05 0.0537237 -0.6125 -1.39012e-05
0.0537219 -0.60625 -1.40313e-05 0.0537199 -0.6 -1.41538e-05 0.0537177 -0.59375 -1.42688e-05 0.0537153
-0.5875 -1.43765e-05 0.0537127 -0.58125 -1.44813e-05 0.0537099 -0.575 -1.45827e-05 0.0537068 -0.56875
-1.46807e-05 0.0537034 -0.5625 -1.47758e-05 0.0536998 -0.55625 -1.4869e-05 0.0536961 -0.55 -1.49666e-05
0.0536922 -0.54375 -1.50685e-05 0.0536879 -0.5375 -1.51749e-05 0.0536833 -0.53125 -1.52856e-05 0.0536784
-0.525 -1.54015e-05 0.0536731 -0.51875 -1.55321e-05 0.0536672 -0.5125 -1.56768e-05 0.0536608 -0.50625
-1.58356e-05 0.0536538 -0.5 -1.60082e-05 0.0536465 -0.49375 -1.61947e-05 0.0536388 -0.4875 -1.63994e-05
0.0536307 -0.48125 -1.66211e-05 0.053622 -0.475 -1.68596e-05 0.0536124 -0.46875 -1.71149e-05 0.0536021
-0.4625 -1.73884e-05 0.0535909 -0.456249 -1.76801e-05 0.0535785 -0.449999 -1.79887e-05 0.0535649 -0.443749
-1.83141e-05 0.05355 -0.437499 -1.86571e-05 0.0535341 -0.431248 -1.90201e-05 0.0535176 -0.424997 -1.94102e-05
0.0535001 -0.418747 -1.98251e-05 0.0534811 -0.412496 -2.0265e-05 0.0534601 -0.406245 -2.07301e-05 0.0534372
-0.399993 -2.1224e-05 0.0534123 -0.393741 -2.17646e-05 0.0533843 -0.387489 -2.2349e-05 0.0533533 -0.381237
-2.29772e-05 0.0533191 -0.374985 -2.36459e-05 0.0532826 -0.368729 -2.43551e-05 0.0532444 -0.362474 -2.51237e-05
0.0532039 -0.356218 -2.59558e-05 0.0531596 -0.349962 -2.68623e-05 0.0531102 -0.343706 -2.78435e-05 0.0530558
[...]
POINT_DATA 4310
FIELD attributes 3
age 1 4310 float
0 1.00034e-05 2.00068e-05 3.00102e-05 4.00137e-05 5.00171e-05 0.000362624 0.000675229 0.000987834 0.00130044 0.00161304
0.00192565 0.00223825 0.00255086 0.00286346 0.00317607 0.00348869 0.0038013 0.00411392 0.00442654 0.00473916
0.00482782 0.00491648 0.00500514 0.0050938 0.00518247 0.00540643 0.00563038 0.00585434 0.0060783 0.00630225
0.00661487 0.0069275 0.00724013 0.00755275 0.00786538 0.008178 0.00849063 0.00880326 0.00911588 0.00942851
0.00974114 0.0100538 0.0103664 0.010679 0.0109917 0.0113043 0.011617 0.0119296 0.0122422 0.0125549
0.0128675 0.0131802 0.0134928 0.0138055 0.0141181 0.0144308 0.0147434 0.0150561 0.0153687 0.0156814
0.015994 0.0163067 0.0166194 0.016932 0.0172447 0.0175574 0.01787 0.0181827 0.0184954 0.0188081
0.0191207 0.0194334 0.0197461 0.0200588 0.0203715 0.0206842 0.0209969 0.0213096 0.0216223 0.021935
0.0222477 0.0225604 0.0228731 0.0231859 0.0234986 0.0238113 0.024124 0.0244368 0.0247495 0.0250622
0.025375 0.0256877 0.0260005 0.0263133 0.0266261 0.0269388 0.0272516 0.0275644 0.0278772 0.0281899
0.0285027 0.0288156 0.0291284 0.0294413 0.0297541 0.030067 0.0303799 0.0306927 0.0310056 0.0313185
0.0316315 0.0319445 0.0322575 0.0325706 0.0328836 0.0331968 0.03351 0.0338232 0.0341364 0.0344496
0.0347632 0.0350769 0.0353906 0.0357043 0.0360179 0.036332 0.0366462 0.0369603 0.0372744 0.0375885
0.0379026 0.0382174 0.0385321 0.0388468 0.0391616 0.0393191 0.0394767 0.0396343 0.0397919 0.0399494
0.0401069 0.0402644 0.0404219 0.0405794 0.0407369 0.0408938 0.0410507 0.0412077 0.0413646 0.0415216
0.0416776 0.0418336 0.0419896 0.0421456 0.0423016 0.0423273 0.0423531 0.0423788 0.0424045 0.0424285
0.0425594 0.0426903 0.0428212 0.0429521 0.043083 0.0432394 0.0433959 0.0435523 0.0437088 0.0438652
0.0439141 0.0439651 0.0440162 0.0440672 0.0441156 0.0442321 0.0443486 0.0444651 0.0445816 0.044698
0.0448654 0.0450324 0.0451994 0.0453663 0.0455331 0.0456887 0.045858 0.0460446 0.0462526 0.0464895
0 1.00976e-05 2.01956e-05 3.02938e-05 4.03924e-05 5.04912e-05 7.43773e-05 9.82632e-05 0.000122149 0.000146035
0.000170253 0.000461896 0.000753531 0.00104514 0.00133671 0.00162825 0.0019437 0.00225921 0.00257478 0.00289041
0.0032061 0.00352185 0.00383762 0.0041534 0.0044692 0.00478502 0.00510085 0.00541671 0.00573258 0.00604848
0.00636439 0.00668032 0.00699628 0.00731226 0.00762826 0.00794429 0.00826034 0.00857642 0.00889253 0.00920866
0.00952483 0.00984102 0.0101572 0.0104735 0.0107898 0.0111061 0.0114225 0.0117389 0.0120553 0.0123718
0.0126883 0.0130048 0.0133214 0.013638 0.0139547 0.0142714 0.0145882 0.014905 0.0152219 0.0155388
0.0158557 0.0161728 0.0164898 0.0168069 0.0171241 0.0174414 0.0177586 0.018076 0.0183934 0.0187109
0.0190284 0.0193461 0.0196638 0.0199815 0.0202994 0.0206173 0.0209353 0.0212534 0.0215716 0.0218899
0.0222083 0.0225267 0.0228453 0.023164 0.0234828 0.0238017 0.0241207 0.0244398 0.0247591 0.0250785
0.0253981 0.0257177 0.0260375 0.0263575 0.0266776 0.0269978 0.0273183 0.0276389 0.0279597 0.0282807
0.0286019 0.0289233 0.0292449 0.0295667 0.0298887 0.030211 0.0305336 0.0308565 0.0311797 0.0315031
0.0318269 0.0321511 0.0324755 0.0328003 0.0331255 0.033451 0.0337773 0.0341041 0.0344316 0.0347597
0.0350884 0.0354179 0.0357481 0.0360787 0.0364092 0.0367398 0.0370727 0.0374054 0.0377379 0.0380702
0.0384025 0.0385694 0.0387363 0.0389032 0.0390701 0.0392371 0.0394045 0.0395722 0.0397404 0.0399089
0.040078 0.0402471 0.0404164 0.040586 0.0407559 0.0409263 0.0409869 0.0410484 0.0411095 0.0411701
0.0412312 0.0413398 0.0414483 0.0415567 0.0416649 0.0417729 0.0419692 0.0422068 0.0425135 0.0429457
0.0435717 0.0439552 0.0443237 0.0446945 0.0452416 0.0463002 0.0465593 0.0467582 0.0469194 0.0471441
0.0476068 0 1.00964e-05 2.01929e-05 3.02893e-05 4.03857e-05 5.04821e-05 7.35783e-05 9.66743e-05 0.00011977
0.000142866 0.000166113 0.000458496 0.000750872 0.00104324 0.0013356 0.00162793 0.00194335 0.00225883 0.00257437
0.00288998 0.00320564 0.00352136 0.00383709 0.00415285 0.00446863 0.00478442 0.00510023 0.00541606 0.00573192
0.00604779 0.00636368 0.00667959 0.00699553 0.00731149 0.00762748 0.00794349 0.00825952 0.00857558 0.00889168
0.0092078 0.00952394 0.00984012 0.0101563 0.0104726 0.0107889 0.0111052 0.0114215 0.0117379 0.0120543
0.0123708 0.0126873 0.0130038 0.0133204 0.013637 0.0139537 0.0142704 0.0145871 0.014904 0.0152208
0.0155377 0.0158547 0.0161717 0.0164888 0.0168059 0.0171231 0.0174404 0.0177577 0.018075 0.0183925
0.01871 0.0190276 0.0193453 0.019663 0.0199808 0.0202987 0.0206167 0.0209348 0.021253 0.0215713
0.0218897 0.0222082 0.0225267 0.0228454 0.0231643 0.0234832 0.0238023 0.0241215 0.0244408 0.0247604
0.02508 0.0253998 0.0257198 0.0260399 0.0263602 0.0266807 0.0270014 0.0273224 0.0276436 0.027965
0.0282867 0.0286087 0.0289309 0.0292534 0.0295762 0.0298994 0.0302229 0.0305469 0.0308716 0.0311967
0.0315223 0.0318482 0.0321751 0.0325025 0.0328306 0.0331592 0.0334889 0.0338207 0.0341532 0.0344867
0.0348217 0.0351584 0.0354973 0.0358362 0.0361751 0.0365139 0.0368542 0.0370256 0.0371972 0.037369
0.0375409 0.0377131 0.0378863 0.0380601 0.0382345 0.0384093 0.0385846 0.0387714 0.0389935 0.0392567
0.0395135 0.0397651 0.0400001 0.0402831 0.0406556 0.0411998 0.0421963 0 1.00951e-05 2.01901e-05
3.02851e-05 4.03801e-05 5.0475e-05 7.9005e-05 0.000107535 0.000136065 0.000164595 0.000193275 0.000480177 0.000767073
0.00105396 0.00134084 0.00162772 0.00194314 0.00225861 0.00257415 0.00288975 0.00320541 0.00352112 0.00383686
0.00415262 0.00446839 0.00478419 0.0051 0.00541584 0.00573169 0.00604757 0.00636347 0.00667939 0.00699534
0.00731131 0.00762731 0.00794333 0.00825938 0.00857546 0.00889156 0.0092077 0.00952387 0.00984006 0.0101563
0.0104726 0.0107889 0.0111052 0.0114216 0.011738 0.0120544 0.0123709 0.0126874 0.013004 0.0133206
0.0136373 0.013954 0.0142707 0.0145875 0.0149044 0.0152213 0.0155383 0.0158553 0.0161724 0.0164895
0.0168067 0.017124 0.0174413 0.0177587 0.0180761 0.0183937 0.0187113 0.019029 0.0193468 0.0196646
0.0199826 0.0203006 0.0206188 0.020937 0.0212554 0.0215738 0.0218924 0.0222111 0.0225299 0.0228488
0.0231679 0.0234872 0.0238065 0.0241261 0.0244458 0.0247657 0.0250857 0.025406 0.0257264 0.0260471
0.026368 0.0266892 0.0270106 0.0273323 0.0276544 0.0279768 0.0282995 0.0286225 0.028946 0.02927
0.0295945 0.0299194 0.0302449 0.0305712 0.0308985 0.0312266 0.0315555 0.0318853 0.0319311 0.0319771
0.032023 0.032069 0.0321153 0.0324022 0.0326909 0.0329812 0.0332733 0.0335673 0.0339127 0.0342593
0.0346064 0.034954 0.03512 0.0351566 0.0351931 0.0352296 0.0352662 0.0353027 0.0353703 0.0354379
0.0355056 0.0355733 0.0356335 0.0357447 0.035856 0.0359674 0.036079 0.0361907 0.0363723 0.0365542
0.0367365 0.036919 0.037102 0.0373084 0.0375233 0.0377743 0.0380759 0.0384542 0.0386578 0.0388962
0.0392088 0.0396623 0.0404769 0 1.00952e-05 2.01904e-05 3.02856e-05 4.03808e-05 5.04759e-05 8.15597e-05
0.000112643 0.000143727 0.000174811 0.000206632 0.000490871 0.000775104 0.00105933 0.00134355 0.00162776 0.00194317
0.00225864 0.00257417 0.00288976 0.00320542 0.00352113 0.00383686 0.00415262 0.00446839 0.00478419 0.00510001
0.00541584 0.0057317 0.00604759 0.00636349 0.00667942 0.00699538 0.00731136 0.00762737 0.0079434 0.00825946
0.00857555 0.00889168 0.00920783 0.00952401 0.00984022 0.0101565 0.0104728 0.0107891 0.0111054 0.0114218
0.0117383 0.0120547 0.0123713 0.0126878 0.0130044 0.0133211 0.0136378 0.0139545 0.0142713 0.0145881
0.014905 0.015222 0.015539 0.0158561 0.0161732 0.0164904 0.0168077 0.017125 0.0174424 0.0177599
0.0180774 0.0183951 0.0187128 0.0190306 0.0193485 0.0196665 0.0199846 0.0203027 0.020621 0.0209394
0.0212579 0.0215766 0.0218954 0.0222143 0.0225333 0.0228525 0.0231719 0.0234914 0.0238111 0.024131
0.024451 0.0247713 0.0250918 0.0254125 0.0257334 0.0260547 0.0263763 0.0266981 0.0270203 0.0273428
0.0276656 0.0279889 0.0283127 0.0286368 0.0289616 0.029287 0.0296131 0.0299398 0.0302671 0.0305954
0.0309249 0.0312562 0.0315894 0.0316913 0.0317381 0.0317849 0.0318317 0.0318785 0.0319254 0.0322628
0.0326009 0.0329397 0.0332793 0.0336193 0.0337894 0.03396 0.034131 0.0343025 0.0344746 0.0346475
0.0348218 0.0349975 0.0351748 0.035354 0.0355342 0.0357155 0.0358978 0.0360812 0.0362646 0.0362866
0.0363092 0.0363324 0.0363562 0.0363809 0.036607 0.0369023 0.0372872 0.0378398 0.0388145 0
1.00963e-05 2.01927e-05 3.0289e-05 4.03853e-05 5.04816e-05 7.94766e-05 0.000108472 0.000137466 0.000166461 0.000195382
0.000481908 0.000768428 0.00105494 0.00134143 0.00162789 0.0019433 0.00225877 0.0025743 0.00288988 0.00320554
0.00352125 0.00383698 0.00415273 0.00446851 0.0047843 0.00510012 0.00541595 0.00573182 0.0060477 0.00636361
0.00667954 0.0069955 0.00731148 0.00762749 0.00794353 0.0082596 0.0085757 0.00889182 0.00920798 0.00952417
0.0098404 0.0101567 0.010473 0.0107893 0.0111057 0.0114221 0.0117385 0.012055 0.0123715 0.0126881
0.0130047 0.0133214 0.0136381 0.0139549 0.0142717 0.0145886 0.0149055 0.0152225 0.0155396 0.0158567
0.0161739 0.0164911 0.0168084 0.0171258 0.0174433 0.0177608 0.0180784 0.0183962 0.0187139 0.0190318
0.0193498 0.0196679 0.0199861 0.0203044 0.0206228 0.0209413 0.02126 0.0215787 0.0218977 0.0222167
0.0225359 0.0228553 0.0231749 0.0234947 0.0238146 0.0241347 0.024455 0.0247756 0.0250965 0.0254175
0.0257389 0.0260606 0.0263827 0.026705 0.0270278 0.027351 0.0276747 0.0279989 0.0283236 0.0286487
0.028975 0.0293021 0.02963 0.0299586 0.0302881 0.0306196 0.0309537 0.0312902 0.0316293 0.0319713
0.0323199 0.0326698 0.0330212 0.0333739 0.033728 0.0339077 0.0340881 0.0342693 0.0344512 0.034634
0.0348202 0.0350087 0.0351989 0.0353906 0.0355847 0.035802 0.0360637 0.0364003 0.036872 0.0375469
0.0376667 0.0377941 0.0379563 0.0381792 0.0385358 0 1.00974e-05 2.01948e-05 3.02923e-05 4.03897e-05
5.04871e-05 7.6049e-05 0.000101611 0.000127173 0.000152735 0.000178588 0.000468508 0.000758409 0.00104828 0.00133813
0.00162795 0.00194336 0.00225883 0.00257435 0.00288994 0.00320559 0.0035213 0.00383703 0.00415278 0.00446856
0.00478435 0.00510016 0.005416 0.00573186 0.00604774 0.00636364 0.00667957 0.00699553 0.00731152 0.00762753
0.00794357 0.00825963 0.00857573 0.00889186 0.00920803 0.00952422 0.00984045 0.0101567 0.010473 0.0107893
0.0111057 0.0114221 0.0117386 0.0120551 0.0123716 0.0126882 0.0130049 0.0133215 0.0136383 0.0139551
0.0142719 0.0145888 0.0149058 0.0152228 0.0155399 0.015857 0.0161742 0.0164915 0.0168088 0.0171263
0.0174438 0.0177613 0.018079 0.0183967 0.0187146 0.0190325 0.0193505 0.0196686 0.0199869 0.0203052
0.0206237 0.0209423 0.021261 0.0215798 0.0218988 0.022218 0.0225372 0.0228567 0.0231763 0.0234962
0.0238162 0.0241364 0.0244568 0.0247775 0.0250985 0.0254197 0.0257412 0.026063 0.0263852 0.0267077
0.0270306 0.0273541 0.027678 0.0280025 0.0283275 0.028653 0.0289797 0.0293072 0.0296355 0.0299647
0.0302947 0.0306273 0.0309626 0.0313008 0.0316418 0.0319858 0.0323368 0.0326893 0.0330432 0.0333986
0.0337554 0.0339384 0.0341222 0.0343067 0.0344918 0.0346776 0.0348689 0.03506 0.0352508 0.0354412
0.0356321 0.035848 0.0361036 0.0364305 0.036907 0.0377854 0 1.0097e-05 2.01941e-05 3.02911e-05
4.03881e-05 5.04851e-05 7.12838e-05 9.20824e-05 0.000112881 0.000133679 0.000154645 0.000449342 0.000744025 0.00103868
0.00133331 0.00162791 0.00194331 0.00225877 0.00257429 0.00288988 0.00320552 0.00352123 0.00383695 0.0041527
0.00446847 0.00478425 0.00510006 0.00541589 0.00573175 0.00604763 0.00636353 0.00667946 0.00699541 0.00731139
0.0076274 0.00794344 0.0082595 0.0085756 0.00889173 0.00920789 0.00952408 0.0098403 0.0101566 0.0104729
0.0107892 0.0111056 0.011422 0.0117384 0.0120549 0.0123715 0.0126881 0.0130047 0.0133214 0.0136381
0.0139549 0.0142718 0.0145887 0.0149056 0.0152227 0.0155397 0.0158569 0.0161741 0.0164914 0.0168087
0.0171261 0.0174436 0.0177612 0.0180789 0.0183966 0.0187144 0.0190324 0.0193504 0.0196685 0.0199867
0.0203051 0.0206235 0.0209421 0.0212607 0.0215796 0.0218985 0.0222176 0.0225368 0.0228562 0.0231758
0.0234956 0.0238155 0.0241356 0.0244559 0.0247764 0.0250972 0.0254182 0.0257395 0.0260611 0.026383
0.0267052 0.0270278 0.0273507 0.0276741 0.0279979 0.0283222 0.0286469 0.0289724 0.0292987 0.0296257
0.0299533 0.0302816 0.0306112 0.030943 0.0312769 0.031613 0.0319513 0.0322928 0.0326357 0.0329795
0.0333244 0.0336703 0.0338444 0.0340192 0.0341945 0.0343704 0.0345468 0.0347234 0.0349015 0.0350811
0.0352623 0.0354456 0.0356278 0.0358093 0.0359901 0.0361702 0.0363511 0.0365145 0.0367144 0.0369776
0.0373628 0.0380813 0 1.00955e-05 2.0191e-05 3.02864e-05 4.03818e-05 5.04772e-05 6.82169e-05 8.59565e-05
0.000103696 0.000121436 0.000139334 0.00043704 0.000734741 0.00103244 0.00133011 0.00162776 0.00194315 0.0022586
0.00257411 0.00288968 0.00320531 0.00352101 0.00383672 0.00415246 0.00446821 0.00478399 0.00509979 0.00541561
0.00573146 0.00604733 0.00636322 0.00667914 0.00699508 0.00731105 0.00762706 0.00794308 0.00825914 0.00857523
0.00889135 0.0092075 0.00952368 0.0098399 0.0101562 0.0104724 0.0107888 0.0111051 0.0114215 0.011738
0.0120545 0.012371 0.0126876 0.0130042 0.0133209 0.0136376 0.0139544 0.0142712 0.0145881 0.0149051
0.0152221 0.0155391 0.0158563 0.0161735 0.0164907 0.016808 0.0171254 0.0174429 0.0177605 0.0180781
0.0183958 0.0187136 0.0190315 0.0193494 0.0196675 0.0199856 0.0203039 0.0206223 0.0209407 0.0212593
0.021578 0.0218969 0.0222158 0.0225349 0.0228542 0.0231736 0.0234932 0.0238129 0.0241327 0.0244528
0.024773 0.0250935 0.0254141 0.025735 0.0260562 0.0263776 0.0266993 0.0270212 0.0273435 0.0276661
0.027989 0.0283122 0.0286359 0.0289601 0.0292849 0.0296101 0.0299359 0.0302622 0.0305894 0.0309176
0.0312468 0.0315771 0.031909 0.032244 0.0325793 0.032915 0.0332501 0.0335845 0.0337531 0.033922
0.0340913 0.034261 0.034431 0.0346032 0.0347764 0.0349508 0.0351263 0.035303 0.0354815 0.0356615
0.0358429 0.0360258 0.0362101 0.0363903 0.0365709 0.0367511 0.0369306 0.0371099 0.0372989 0.0375439
0.0379015 0.0384988 0.0396516 0 1.00935e-05 2.01869e-05 3.02804e-05 4.03738e-05 5.04673e-05 6.85512e-05
8.6635e-05 0.000104719 0.000122803 0.000141156 0.000438436 0.000735712 0.00103298 0.00133025 0.00162751 0.00194288
0.00225831 0.0025738 0.00288936 0.00320497 0.00352065 0.00383635 0.00415207 0.0044678 0.00478356 0.00509935
0.00541515 0.00573098 0.00604683 0.0063627 0.0066786 0.00699453 0.00731048 0.00762646 0.00794247 0.00825851
0.00857458 0.00889068 0.00920682 0.00952299 0.00983919 0.0101554 0.0104717 0.010788 0.0111044 0.0114207
0.0117372 0.0120537 0.0123702 0.0126867 0.0130033 0.01332 0.0136367 0.0139535 0.0142703 0.0145871
0.0149041 0.015221 0.0155381 0.0158552 0.0161723 0.0164896 0.0168069 0.0171242 0.0174416 0.0177591
0.0180767 0.0183944 0.0187121 0.0190299 0.0193478 0.0196658 0.0199838 0.020302 0.0206203 0.0209386
0.0212571 0.0215756 0.0218943 0.0222131 0.022532 0.0228511 0.0231703 0.0234896 0.0238091 0.0241287
0.0244484 0.0247683 0.0250884 0.0254087 0.0257291 0.0260497 0.0263706 0.0266917 0.027013 0.0273345
0.0276563 0.0279783 0.0283007 0.0286233 0.0289463 0.0292696 0.0295934 0.0299175 0.0302421 0.0305672
0.0308927 0.0312187 0.0315454 0.0318726 0.032201 0.032531 0.0328625 0.0331955 0.0335299 0.0338665
0.0342031 0.0345399 0.0348766 0.0352135 0.0353823 0.0355512 0.0357202 0.0358894 0.0360588 0.03623
0.0364021 0.0365749 0.0367484 0.0369229 0.0370993 0.0372763 0.0374541 0.0376327 0.0378118 0.0379935
0.0382081 0.0384238 0.038636 0.0388451 0.0389908 0.0391537 0.0393447 0.0395758 0.0398788 0.0400638
0.0402828 0.0405627 0.0409591 0.0416352 0.0418546 0.0420294 0.042238 0.0424959 0.0428467 0
1.00925e-05 2.0185e-05 3.02775e-05 4.03699e-05 5.04624e-05 6.93539e-05 8.82454e-05 0.000107137 0.000126028 0.000145176
0.000441621 0.000738061 0.0010345 0.00133093 0.00162735 0.0019427 0.00225811 0.00257357 0.0028891 0.0032047
0.00352035 0.00383602 0.00415171 0.00446743 0.00478316 0.00509892 0.00541469 0.00573049 0.00604632 0.00636217
0.00667804 0.00699394 0.00730987 0.00762582 0.00794181 0.00825782 0.00857386 0.00888994 0.00920605 0.00952219
0.00983837 0.0101546 0.0104708 0.0107871 0.0111034 0.0114198 0.0117362 0.0120527 0.0123692 0.0126857
0.0130023 0.0133189 0.0136356 0.0139523 0.0142691 0.0145859 0.0149028 0.0152198 0.0155368 0.0158538
0.0161709 0.0164881 0.0168054 0.0171227 0.01744 0.0177575 0.018075 0.0183926 0.0187102 0.019028
0.0193458 0.0196636 0.0199816 0.0202997 0.0206178 0.0209361 0.0212544 0.0215729 0.0218914 0.02221
0.0225288 0.0228476 0.0231666 0.0234857 0.0238049 0.0241242 0.0244437 0.0247633 0.0250831 0.025403
0.025723 0.0260432 0.0263636 0.0266841 0.0270048 0.0273257 0.0276468 0.0279681 0.0282896 0.0286113
0.0289332 0.0292554 0.0295778 0.0299005 0.0302234 0.0305467 0.0308703 0.0311942 0.0315184 0.031843
0.032168 0.0324935 0.0328193 0.0331456 0.0334722 0.0337998 0.0341279 0.0344568 0.0347865 0.0351169
0.0354488 0.0357807 0.0361127 0.0364446 0.0367768 0.0369432 0.0371096 0.037276 0.0374423 0.0376087
0.037664 0.0377193 0.0377747 0.0378302 0.0378734 0.0379861 0.038099 0.038212 0.0383252 0.0384388
0.0386051 0.0387717 0.0389387 0.039106 0.0392738 0.0394407 0.0396081 0.0397761 0.0399447 0.0401145
0.0402851 0.0404568 0.040629 0.0408017 0.0409753 0.0411577 0.0413849 0.041688 0.0421056 0.0425001
0.0425851 0.0426778 0.042784 0.0429085 0.0430652 0.0431681 0.0432876 0.0434313 0.0436266 0.0439302
0.0440889 0.0441984 0.0443216 0.0444679 0.0447168 0 1.00926e-05 2.01852e-05 3.02778e-05 4.03704e-05
5.04629e-05 6.66133e-05 8.27637e-05 9.89141e-05 0.000115065 0.000131205 0.000430448 0.000729687 0.00102892 0.00132815
0.00162734 0.00194266 0.00225804 0.00257348 0.00288897 0.00320453 0.00352015 0.00383579 0.00415145 0.00446713
0.00478283 0.00509856 0.0054143 0.00573007 0.00604586 0.00636168 0.00667752 0.00699339 0.00730929 0.00762521
0.00794116 0.00825714 0.00857315 0.0088892 0.00920528 0.00952139 0.00983753 0.0101537 0.0104699 0.0107862
0.0111025 0.0114188 0.0117352 0.0120516 0.012368 0.0126845 0.0130011 0.0133177 0.0136343 0.013951
0.0142678 0.0145846 0.0149014 0.0152183 0.0155353 0.0158523 0.0161694 0.0164865 0.0168037 0.0171209
0.0174382 0.0177556 0.018073 0.0183906 0.0187081 0.0190258 0.0193435 0.0196613 0.0199792 0.0202972
0.0206152 0.0209334 0.0212516 0.0215699 0.0218883 0.0222068 0.0225255 0.0228442 0.023163 0.0234819
0.0238009 0.0241201 0.0244393 0.0247587 0.0250782 0.0253979 0.0257016 0.0260055 0.0263095 0.0266137
0.0268744 0.0268991 0.0269238 0.0269485 0.0269733 0.026998 0.0273184 0.0276391 0.0279598 0.0282808
0.0286019 0.0289231 0.0292445 0.0295661 0.0298879 0.0302098 0.030532 0.0308544 0.031177 0.0314999
0.0318229 0.0321461 0.0324696 0.0327933 0.0331171 0.0334413 0.0337658 0.0340907 0.0344159 0.0347412
0.0350669 0.0353928 0.0357189 0.0360452 0.0363717 0.0366989 0.0370265 0.037354 0.0376817 0.0380099
0.0383389 0.0386682 0.038997 0.0393251 0.0396526 0.0399802 0.0401444 0.0403087 0.040473 0.0406374
0.0408017 0.0409655 0.0411289 0.0412919 0.0414545 0.0416164 0.0416972 0.041778 0.0418587 0.0419395
0.0420202 0.042101 0.0421819 0.0422631 0.0423444 0.042426 0.042434 0.042442 0.04245 0.0424579
0.0424653 0.0425396 0.0426138 0.0426881 0.0427624 0.0428367 0.0428638 0.0428909 0.042918 0.0429452
0.0429711 0.043028 0.043085 0.0431419 0.043199 0.0432562 0.043299 0.0433417 0.0433843 0.043427
0.0434696 0.0435121 0.0435546 0.0435972 0.0436397 0.0436822 0.0437243 0.0437664 0.0438085 0.0438505
0.0438925 0.0439344 0.0439763 0.0440182 0.0440601 0.0441019 0.044143 0.0441842 0.0442253 0.0442664
0.0443076 0.0443492 0.0443984 0.0444457 0.0444915 0.0445358 0.0445678 0.0445983 0.0446285 0.0446584
0.0446946 0.044704 0.0447133 0.0447227 0.044732 0.0447414 0.0447866 0.0448383 0.0449015 0.0449828
0.0450966 0.0451787 0.0452599 0.0453577 0.0454947 0.0456511 0.0457347 0.0458161 0.0458961 0.045975
0.0460512 0.0461407 0.0462049 0.0462676 0.0463643 0.0465427 0 1.00926e-05 2.01852e-05 3.02778e-05
4.03704e-05 5.0463e-05 6.6294e-05 8.21249e-05 9.79558e-05 0.000113787 0.0001295 0.000429085 0.000728665 0.00102822
0.00132775 0.00162726 0.00194254 0.00225788 0.00257328 0.00288874 0.00320426 0.00351984 0.00383545 0.00415107