# Selection : patch(inlet)
# Faces  :    30
# Area   :    2.540000e-05
# Time        	areaAverage(p)	areaAverage(U)
0             	0.000000e+00	(1.000000e+01 0.000000e+00 0.000000e+00)
0.000119048   	1.559167e+04	(1.000000e+01 0.000000e+00 0.000000e+00)
0.00019685    	2.810022e+01	(1.000000e+01 0.000000e+00 0.000000e+00)
0.000284379   	3.798261e+01	(1.000000e+01 0.000000e+00 0.000000e+00)
0.000375179   	1.073771e+01	(1.000000e+01 0.000000e+00 0.000000e+00)
0.000472399   	1.259086e+01	(1.000000e+01 0.000000e+00 0.000000e+00)
0.000573757   	1.184755e+01	(1.000000e+01 0.000000e+00 0.000000e+00)
0.000679669   	1.170138e+01	(1.000000e+01 0.000000e+00 0.000000e+00)
0.00078932    	1.139852e+01	(1.000000e+01 0.000000e+00 0.000000e+00)
0.000903032   	1.135536e+01	(1.000000e+01 0.000000e+00 0.000000e+00)
0.00101966    	1.119599e+01	(1.000000e+01 0.000000e+00 0.000000e+00)
0.0011394     	1.108542e+01	(1.000000e+01 0.000000e+00 0.000000e+00)
0.00126246    	1.101432e+01	(1.000000e+01 0.000000e+00 0.000000e+00)
0.00138909    	1.087118e+01	(1.000000e+01 0.000000e+00 0.000000e+00)
0.00151761    	1.085957e+01	(1.000000e+01 0.000000e+00 0.000000e+00)
0.00164811    	1.081994e+01	(1.000000e+01 0.000000e+00 0.000000e+00)
0.00178068    	1.089372e+01	(1.000000e+01 0.000000e+00 0.000000e+00)
0.00191542    	1.090175e+01	(1.000000e+01 0.000000e+00 0.000000e+00)
0.00205245    	1.103184e+01	(1.000000e+01 0.000000e+00 0.000000e+00)
0.00219188    	1.107904e+01	(1.000000e+01 0.000000e+00 0.000000e+00)
0.00233385    	1.125014e+01	(1.000000e+01 0.000000e+00 0.000000e+00)
0.00247581    	1.128358e+01	(1.000000e+01 0.000000e+00 0.000000e+00)
0.00261778    	1.142245e+01	(1.000000e+01 0.000000e+00 0.000000e+00)
0.00276253    	1.145904e+01	(1.000000e+01 0.000000e+00 0.000000e+00)
0.00290728    	1.151266e+01	(1.000000e+01 0.000000e+00 0.000000e+00)
0.00305203    	1.155210e+01	(1.000000e+01 0.000000e+00 0.000000e+00)
0.00319986    	1.147418e+01	(1.000000e+01 0.000000e+00 0.000000e+00)
0.00334769    	1.146494e+01	(1.000000e+01 0.000000e+00 0.000000e+00)
0.00349552    	1.145204e+01	(1.000000e+01 0.000000e+00 0.000000e+00)
0.00364334    	1.141859e+01	(1.000000e+01 0.000000e+00 0.000000e+00)
0.00379469    	1.136090e+01	(1.000000e+01 0.000000e+00 0.000000e+00)
0.00394604    	1.130845e+01	(1.000000e+01 0.000000e+00 0.000000e+00)
0.00409739    	1.123075e+01	(1.000000e+01 0.000000e+00 0.000000e+00)
0.00425272    	1.114071e+01	(1.000000e+01 0.000000e+00 0.000000e+00)
0.00440806    	1.105932e+01	(1.000000e+01 0.000000e+00 0.000000e+00)
0.00456339    	1.096208e+01	(1.000000e+01 0.000000e+00 0.000000e+00)
0.00472329    	1.083790e+01	(1.000000e+01 0.000000e+00 0.000000e+00)
0.00488319    	1.072459e+01	(1.000000e+01 0.000000e+00 0.000000e+00)
0.00504309    	1.058905e+01	(1.000000e+01 0.000000e+00 0.000000e+00)
0.00520832    	1.044368e+01	(1.000000e+01 0.000000e+00 0.000000e+00)
0.00537355    	1.030350e+01	(1.000000e+01 0.000000e+00 0.000000e+00)
0.00553878    	1.015200e+01	(1.000000e+01 0.000000e+00 0.000000e+00)
0.00570401    	9.993795e+00	(1.000000e+01 0.000000e+00 0.000000e+00)
0.00587585    	9.801013e+00	(1.000000e+01 0.000000e+00 0.000000e+00)
0.00604769    	9.651454e+00	(1.000000e+01 0.000000e+00 0.000000e+00)
0.00621953    	9.480258e+00	(1.000000e+01 0.000000e+00 0.000000e+00)
0.00639137    	9.301552e+00	(1.000000e+01 0.000000e+00 0.000000e+00)
0.00656321    	9.130412e+00	(1.000000e+01 0.000000e+00 0.000000e+00)
0.00673505    	8.953438e+00	(1.000000e+01 0.000000e+00 0.000000e+00)
0.00690689    	8.781631e+00	(1.000000e+01 0.000000e+00 0.000000e+00)
0.00708883    	8.567979e+00	(1.000000e+01 0.000000e+00 0.000000e+00)
0.00727078    	8.423994e+00	(1.000000e+01 0.000000e+00 0.000000e+00)
0.00745273    	8.255852e+00	(1.000000e+01 0.000000e+00 0.000000e+00)
0.00763468    	8.087454e+00	(1.000000e+01 0.000000e+00 0.000000e+00)
0.00781663    	7.928983e+00	(1.000000e+01 0.000000e+00 0.000000e+00)
0.00799857    	7.769805e+00	(1.000000e+01 0.000000e+00 0.000000e+00)
0.00818052    	7.618149e+00	(1.000000e+01 0.000000e+00 0.000000e+00)
0.00836247    	7.464650e+00	(1.000000e+01 0.000000e+00 0.000000e+00)
0.00854442    	7.321329e+00	(1.000000e+01 0.000000e+00 0.000000e+00)
0.00872637    	7.177110e+00	(1.000000e+01 0.000000e+00 0.000000e+00)
0.00890831    	7.044942e+00	(1.000000e+01 0.000000e+00 0.000000e+00)
0.00909026    	6.910039e+00	(1.000000e+01 0.000000e+00 0.000000e+00)
0.00927221    	6.790426e+00	(1.000000e+01 0.000000e+00 0.000000e+00)
0.00945416    	6.661897e+00	(1.000000e+01 0.000000e+00 0.000000e+00)
0.0096361     	6.551788e+00	(1.000000e+01 0.000000e+00 0.000000e+00)
0.00981805    	6.434069e+00	(1.000000e+01 0.000000e+00 0.000000e+00)
0.01          	6.331068e+00	(1.000000e+01 0.000000e+00 0.000000e+00)
0.0102041     	6.206531e+00	(1.000000e+01 0.000000e+00 0.000000e+00)
0.0104082     	6.106779e+00	(1.000000e+01 0.000000e+00 0.000000e+00)
0.0106122     	5.999380e+00	(1.000000e+01 0.000000e+00 0.000000e+00)
0.0108209     	5.893043e+00	(1.000000e+01 0.000000e+00 0.000000e+00)
0.0110295     	5.795190e+00	(1.000000e+01 0.000000e+00 0.000000e+00)
0.0112381     	5.698398e+00	(1.000000e+01 0.000000e+00 0.000000e+00)
0.0114467     	5.610618e+00	(1.000000e+01 0.000000e+00 0.000000e+00)
0.0116553     	5.524182e+00	(1.000000e+01 0.000000e+00 0.000000e+00)
0.0118639     	5.448560e+00	(1.000000e+01 0.000000e+00 0.000000e+00)
0.0120781     	5.372947e+00	(1.000000e+01 0.000000e+00 0.000000e+00)
0.0122922     	5.304841e+00	(1.000000e+01 0.000000e+00 0.000000e+00)
0.0125063     	5.248452e+00	(1.000000e+01 0.000000e+00 0.000000e+00)
0.0127204     	5.191462e+00	(1.000000e+01 0.000000e+00 0.000000e+00)
0.0129345     	5.144266e+00	(1.000000e+01 0.000000e+00 0.000000e+00)
0.0131486     	5.101168e+00	(1.000000e+01 0.000000e+00 0.000000e+00)
0.0133627     	5.063584e+00	(1.000000e+01 0.000000e+00 0.000000e+00)
0.0135768     	5.031915e+00	(1.000000e+01 0.000000e+00 0.000000e+00)
0.0137983     	5.010552e+00	(1.000000e+01 0.000000e+00 0.000000e+00)
0.0140198     	4.984139e+00	(1.000000e+01 0.000000e+00 0.000000e+00)
0.0142413     	4.977780e+00	(1.000000e+01 0.000000e+00 0.000000e+00)
0.0144628     	4.964438e+00	(1.000000e+01 0.000000e+00 0.000000e+00)
0.0146842     	4.970634e+00	(1.000000e+01 0.000000e+00 0.000000e+00)
0.0149057     	4.973529e+00	(1.000000e+01 0.000000e+00 0.000000e+00)
0.0151272     	4.989972e+00	(1.000000e+01 0.000000e+00 0.000000e+00)
0.0153487     	5.008918e+00	(1.000000e+01 0.000000e+00 0.000000e+00)
0.0155702     	5.037898e+00	(1.000000e+01 0.000000e+00 0.000000e+00)
0.0157917     	5.073551e+00	(1.000000e+01 0.000000e+00 0.000000e+00)
0.0160132     	5.113845e+00	(1.000000e+01 0.000000e+00 0.000000e+00)
0.0162347     	5.159480e+00	(1.000000e+01 0.000000e+00 0.000000e+00)
0.0164562     	5.217874e+00	(1.000000e+01 0.000000e+00 0.000000e+00)
0.0166777     	5.277505e+00	(1.000000e+01 0.000000e+00 0.000000e+00)
0.0168991     	5.341722e+00	(1.000000e+01 0.000000e+00 0.000000e+00)
0.0171206     	5.410387e+00	(1.000000e+01 0.000000e+00 0.000000e+00)
0.0173421     	5.485334e+00	(1.000000e+01 0.000000e+00 0.000000e+00)
0.0175636     	5.561904e+00	(1.000000e+01 0.000000e+00 0.000000e+00)
0.0177851     	5.642587e+00	(1.000000e+01 0.000000e+00 0.000000e+00)
0.0180066     	5.727651e+00	(1.000000e+01 0.000000e+00 0.000000e+00)
0.0182281     	5.813658e+00	(1.000000e+01 0.000000e+00 0.000000e+00)
0.0184496     	5.906735e+00	(1.000000e+01 0.000000e+00 0.000000e+00)
0.0186711     	5.991479e+00	(1.000000e+01 0.000000e+00 0.000000e+00)
0.0188926     	6.082201e+00	(1.000000e+01 0.000000e+00 0.000000e+00)
0.019114      	6.168387e+00	(1.000000e+01 0.000000e+00 0.000000e+00)
0.0193355     	6.251424e+00	(1.000000e+01 0.000000e+00 0.000000e+00)
0.019557      	6.337239e+00	(1.000000e+01 0.000000e+00 0.000000e+00)
0.0197785     	6.411877e+00	(1.000000e+01 0.000000e+00 0.000000e+00)
0.02          	6.489660e+00	(1.000000e+01 0.000000e+00 0.000000e+00)
0.0202273     	6.557123e+00	(1.000000e+01 0.000000e+00 0.000000e+00)
0.0204545     	6.624460e+00	(1.000000e+01 0.000000e+00 0.000000e+00)
0.0206818     	6.663888e+00	(1.000000e+01 0.000000e+00 0.000000e+00)
0.0209091     	6.720283e+00	(1.000000e+01 0.000000e+00 0.000000e+00)
0.0211364     	6.752828e+00	(1.000000e+01 0.000000e+00 0.000000e+00)
0.0213636     	6.783720e+00	(1.000000e+01 0.000000e+00 0.000000e+00)
0.0215909     	6.796943e+00	(1.000000e+01 0.000000e+00 0.000000e+00)
0.0218182     	6.803183e+00	(1.000000e+01 0.000000e+00 0.000000e+00)
0.0220455     	6.795684e+00	(1.000000e+01 0.000000e+00 0.000000e+00)
0.0222727     	6.773723e+00	(1.000000e+01 0.000000e+00 0.000000e+00)
0.0225        	6.745379e+00	(1.000000e+01 0.000000e+00 0.000000e+00)
0.0227273     	6.695530e+00	(1.000000e+01 0.000000e+00 0.000000e+00)
0.0229545     	6.644455e+00	(1.000000e+01 0.000000e+00 0.000000e+00)
0.0231818     	6.568007e+00	(1.000000e+01 0.000000e+00 0.000000e+00)
0.0234091     	6.490263e+00	(1.000000e+01 0.000000e+00 0.000000e+00)
0.0236364     	6.392430e+00	(1.000000e+01 0.000000e+00 0.000000e+00)
0.0238636     	6.285632e+00	(1.000000e+01 0.000000e+00 0.000000e+00)
0.0240909     	6.168441e+00	(1.000000e+01 0.000000e+00 0.000000e+00)
0.0243182     	6.036878e+00	(1.000000e+01 0.000000e+00 0.000000e+00)
0.0245455     	5.860025e+00	(1.000000e+01 0.000000e+00 0.000000e+00)
0.0247727     	5.695088e+00	(1.000000e+01 0.000000e+00 0.000000e+00)
0.025         	5.565680e+00	(1.000000e+01 0.000000e+00 0.000000e+00)
0.0252273     	5.357810e+00	(1.000000e+01 0.000000e+00 0.000000e+00)
0.0254545     	5.223761e+00	(1.000000e+01 0.000000e+00 0.000000e+00)
0.0256818     	4.999908e+00	(1.000000e+01 0.000000e+00 0.000000e+00)
0.0259091     	4.857275e+00	(1.000000e+01 0.000000e+00 0.000000e+00)
0.0261364     	4.622285e+00	(1.000000e+01 0.000000e+00 0.000000e+00)
0.0263636     	4.479462e+00	(1.000000e+01 0.000000e+00 0.000000e+00)
0.0265909     	4.232228e+00	(1.000000e+01 0.000000e+00 0.000000e+00)
0.0268182     	4.091646e+00	(1.000000e+01 0.000000e+00 0.000000e+00)
0.0270455     	3.833645e+00	(1.000000e+01 0.000000e+00 0.000000e+00)
0.0272727     	3.720896e+00	(1.000000e+01 0.000000e+00 0.000000e+00)
0.0275        	3.473509e+00	(1.000000e+01 0.000000e+00 0.000000e+00)
0.0277273     	3.361947e+00	(1.000000e+01 0.000000e+00 0.000000e+00)
0.0279545     	3.119593e+00	(1.000000e+01 0.000000e+00 0.000000e+00)
0.0281818     	3.029294e+00	(1.000000e+01 0.000000e+00 0.000000e+00)
0.0284091     	2.792043e+00	(1.000000e+01 0.000000e+00 0.000000e+00)
0.0286364     	2.724279e+00	(1.000000e+01 0.000000e+00 0.000000e+00)
0.0288312     	2.546698e+00	(1.000000e+01 0.000000e+00 0.000000e+00)
0.029026      	2.514720e+00	(1.000000e+01 0.000000e+00 0.000000e+00)
0.0292208     	2.354133e+00	(1.000000e+01 0.000000e+00 0.000000e+00)
0.0294156     	2.335240e+00	(1.000000e+01 0.000000e+00 0.000000e+00)
0.0296104     	2.214811e+00	(1.000000e+01 0.000000e+00 0.000000e+00)
0.0298052     	2.214126e+00	(1.000000e+01 0.000000e+00 0.000000e+00)
0.03          	2.124821e+00	(1.000000e+01 0.000000e+00 0.000000e+00)
0.0302174     	2.137634e+00	(1.000000e+01 0.000000e+00 0.000000e+00)
0.0304301     	2.070820e+00	(1.000000e+01 0.000000e+00 0.000000e+00)
0.0306427     	2.133887e+00	(1.000000e+01 0.000000e+00 0.000000e+00)
0.0308554     	2.081922e+00	(1.000000e+01 0.000000e+00 0.000000e+00)
0.0310681     	2.173928e+00	(1.000000e+01 0.000000e+00 0.000000e+00)
0.0312807     	2.127864e+00	(1.000000e+01 0.000000e+00 0.000000e+00)
0.0314883     	2.276508e+00	(1.000000e+01 0.000000e+00 0.000000e+00)
0.0316959     	2.242125e+00	(1.000000e+01 0.000000e+00 0.000000e+00)
0.0319035     	2.413890e+00	(1.000000e+01 0.000000e+00 0.000000e+00)
0.0321111     	2.404942e+00	(1.000000e+01 0.000000e+00 0.000000e+00)
0.0323187     	2.593079e+00	(1.000000e+01 0.000000e+00 0.000000e+00)
0.0325263     	2.596888e+00	(1.000000e+01 0.000000e+00 0.000000e+00)
0.0327339     	2.802451e+00	(1.000000e+01 0.000000e+00 0.000000e+00)
0.0329358     	2.814630e+00	(1.000000e+01 0.000000e+00 0.000000e+00)
0.0331376     	3.016249e+00	(1.000000e+01 0.000000e+00 0.000000e+00)
0.0333394     	3.054863e+00	(1.000000e+01 0.000000e+00 0.000000e+00)
0.0335413     	3.262243e+00	(1.000000e+01 0.000000e+00 0.000000e+00)
0.0337431     	3.305486e+00	(1.000000e+01 0.000000e+00 0.000000e+00)
0.0339449     	3.518268e+00	(1.000000e+01 0.000000e+00 0.000000e+00)
0.0341468     	3.575142e+00	(1.000000e+01 0.000000e+00 0.000000e+00)
0.0343486     	3.748143e+00	(1.000000e+01 0.000000e+00 0.000000e+00)
0.0345504     	3.855907e+00	(1.000000e+01 0.000000e+00 0.000000e+00)
0.0347523     	4.039716e+00	(1.000000e+01 0.000000e+00 0.000000e+00)
0.0349541     	4.155617e+00	(1.000000e+01 0.000000e+00 0.000000e+00)
0.035156      	4.345947e+00	(1.000000e+01 0.000000e+00 0.000000e+00)
0.0353578     	4.476810e+00	(1.000000e+01 0.000000e+00 0.000000e+00)
0.0355596     	4.676113e+00	(1.000000e+01 0.000000e+00 0.000000e+00)
0.0357615     	4.811407e+00	(1.000000e+01 0.000000e+00 0.000000e+00)
0.0359633     	5.033330e+00	(1.000000e+01 0.000000e+00 0.000000e+00)
0.0361651     	5.167729e+00	(1.000000e+01 0.000000e+00 0.000000e+00)
0.036367      	5.395023e+00	(1.000000e+01 0.000000e+00 0.000000e+00)
0.0365688     	5.537586e+00	(1.000000e+01 0.000000e+00 0.000000e+00)
0.0367706     	5.763610e+00	(1.000000e+01 0.000000e+00 0.000000e+00)
0.0369725     	5.911370e+00	(1.000000e+01 0.000000e+00 0.000000e+00)
0.0371743     	6.131809e+00	(1.000000e+01 0.000000e+00 0.000000e+00)
0.0373761     	6.287944e+00	(1.000000e+01 0.000000e+00 0.000000e+00)
0.037578      	6.498572e+00	(1.000000e+01 0.000000e+00 0.000000e+00)
0.0377798     	6.653929e+00	(1.000000e+01 0.000000e+00 0.000000e+00)
0.0379816     	6.861785e+00	(1.000000e+01 0.000000e+00 0.000000e+00)
0.0381835     	7.010558e+00	(1.000000e+01 0.000000e+00 0.000000e+00)
0.0383853     	7.210093e+00	(1.000000e+01 0.000000e+00 0.000000e+00)
0.0385872     	7.351981e+00	(1.000000e+01 0.000000e+00 0.000000e+00)
0.038789      	7.523824e+00	(1.000000e+01 0.000000e+00 0.000000e+00)
0.0389908     	7.638961e+00	(1.000000e+01 0.000000e+00 0.000000e+00)
0.0391927     	7.833728e+00	(1.000000e+01 0.000000e+00 0.000000e+00)
0.0393945     	7.847247e+00	(1.000000e+01 0.000000e+00 0.000000e+00)
0.0395963     	8.003307e+00	(1.000000e+01 0.000000e+00 0.000000e+00)
0.0397982     	7.932726e+00	(1.000000e+01 0.000000e+00 0.000000e+00)
0.04          	8.051158e+00	(1.000000e+01 0.000000e+00 0.000000e+00)
0.0402041     	7.892379e+00	(1.000000e+01 0.000000e+00 0.000000e+00)
0.0404082     	7.957195e+00	(1.000000e+01 0.000000e+00 0.000000e+00)
0.0406122     	7.707203e+00	(1.000000e+01 0.000000e+00 0.000000e+00)
0.0408163     	7.699799e+00	(1.000000e+01 0.000000e+00 0.000000e+00)
0.0410204     	7.370241e+00	(1.000000e+01 0.000000e+00 0.000000e+00)
0.0412245     	7.293160e+00	(1.000000e+01 0.000000e+00 0.000000e+00)
0.0414334     	6.891726e+00	(1.000000e+01 0.000000e+00 0.000000e+00)
0.0416424     	6.760478e+00	(1.000000e+01 0.000000e+00 0.000000e+00)
0.0418513     	6.372324e+00	(1.000000e+01 0.000000e+00 0.000000e+00)
0.0420603     	6.156269e+00	(1.000000e+01 0.000000e+00 0.000000e+00)
0.0422692     	5.722954e+00	(1.000000e+01 0.000000e+00 0.000000e+00)
0.0424781     	5.522780e+00	(1.000000e+01 0.000000e+00 0.000000e+00)
0.042693      	5.102756e+00	(1.000000e+01 0.000000e+00 0.000000e+00)
0.042908      	4.930861e+00	(1.000000e+01 0.000000e+00 0.000000e+00)
0.0431229     	4.550489e+00	(1.000000e+01 0.000000e+00 0.000000e+00)
0.0433378     	4.466331e+00	(1.000000e+01 0.000000e+00 0.000000e+00)
0.0435599     	4.138005e+00	(1.000000e+01 0.000000e+00 0.000000e+00)
0.0437819     	4.159172e+00	(1.000000e+01 0.000000e+00 0.000000e+00)
0.044004      	3.876960e+00	(1.000000e+01 0.000000e+00 0.000000e+00)
0.0442346     	4.067740e+00	(1.000000e+01 0.000000e+00 0.000000e+00)
0.0444652     	3.768840e+00	(1.000000e+01 0.000000e+00 0.000000e+00)
0.0446958     	4.167167e+00	(1.000000e+01 0.000000e+00 0.000000e+00)
0.0449265     	3.785325e+00	(1.000000e+01 0.000000e+00 0.000000e+00)
0.0451571     	4.424944e+00	(1.000000e+01 0.000000e+00 0.000000e+00)
0.0453877     	3.872014e+00	(1.000000e+01 0.000000e+00 0.000000e+00)
0.0456183     	4.783574e+00	(1.000000e+01 0.000000e+00 0.000000e+00)
0.0458489     	3.997518e+00	(1.000000e+01 0.000000e+00 0.000000e+00)
0.0460795     	5.147986e+00	(1.000000e+01 0.000000e+00 0.000000e+00)
0.0463102     	4.140898e+00	(1.000000e+01 0.000000e+00 0.000000e+00)
0.0465408     	5.452131e+00	(1.000000e+01 0.000000e+00 0.000000e+00)
0.0467714     	4.319999e+00	(1.000000e+01 0.000000e+00 0.000000e+00)
0.047002      	5.613811e+00	(1.000000e+01 0.000000e+00 0.000000e+00)
0.0472326     	4.520953e+00	(1.000000e+01 0.000000e+00 0.000000e+00)
0.0474632     	5.676077e+00	(1.000000e+01 0.000000e+00 0.000000e+00)
0.0476938     	4.657945e+00	(1.000000e+01 0.000000e+00 0.000000e+00)
0.0479245     	5.632569e+00	(1.000000e+01 0.000000e+00 0.000000e+00)
0.0481551     	4.723866e+00	(1.000000e+01 0.000000e+00 0.000000e+00)
0.0483857     	5.500142e+00	(1.000000e+01 0.000000e+00 0.000000e+00)
0.0486163     	4.697536e+00	(1.000000e+01 0.000000e+00 0.000000e+00)
0.0488469     	5.283869e+00	(1.000000e+01 0.000000e+00 0.000000e+00)
0.0490775     	4.563344e+00	(1.000000e+01 0.000000e+00 0.000000e+00)
0.0493082     	5.005387e+00	(1.000000e+01 0.000000e+00 0.000000e+00)
0.0495388     	4.379063e+00	(1.000000e+01 0.000000e+00 0.000000e+00)
0.0497694     	4.665477e+00	(1.000000e+01 0.000000e+00 0.000000e+00)
0.05          	4.114483e+00	(1.000000e+01 0.000000e+00 0.000000e+00)
0.0502326     	4.247957e+00	(1.000000e+01 0.000000e+00 0.000000e+00)
0.0504651     	3.776364e+00	(1.000000e+01 0.000000e+00 0.000000e+00)
0.0506977     	3.850255e+00	(1.000000e+01 0.000000e+00 0.000000e+00)
0.0509302     	3.417864e+00	(1.000000e+01 0.000000e+00 0.000000e+00)
0.0511628     	3.441553e+00	(1.000000e+01 0.000000e+00 0.000000e+00)
0.0513894     	3.053285e+00	(1.000000e+01 0.000000e+00 0.000000e+00)
0.051616      	3.067915e+00	(1.000000e+01 0.000000e+00 0.000000e+00)
0.0518426     	2.706952e+00	(1.000000e+01 0.000000e+00 0.000000e+00)
0.0520692     	2.708491e+00	(1.000000e+01 0.000000e+00 0.000000e+00)
0.0522958     	2.397889e+00	(1.000000e+01 0.000000e+00 0.000000e+00)
0.0525224     	2.401734e+00	(1.000000e+01 0.000000e+00 0.000000e+00)
0.052749      	2.105505e+00	(1.000000e+01 0.000000e+00 0.000000e+00)
0.0529687     	2.124792e+00	(1.000000e+01 0.000000e+00 0.000000e+00)
0.0531884     	1.882591e+00	(1.000000e+01 0.000000e+00 0.000000e+00)
0.0534013     	1.897324e+00	(1.000000e+01 0.000000e+00 0.000000e+00)
0.0536141     	1.731996e+00	(1.000000e+01 0.000000e+00 0.000000e+00)
0.0538201     	1.758537e+00	(1.000000e+01 0.000000e+00 0.000000e+00)
0.0540261     	1.669040e+00	(1.000000e+01 0.000000e+00 0.000000e+00)
0.0542321     	1.688358e+00	(1.000000e+01 0.000000e+00 0.000000e+00)
0.054431      	1.638142e+00	(1.000000e+01 0.000000e+00 0.000000e+00)
0.0546299     	1.684927e+00	(1.000000e+01 0.000000e+00 0.000000e+00)
0.0548288     	1.645244e+00	(1.000000e+01 0.000000e+00 0.000000e+00)
0.0550203     	1.724676e+00	(1.000000e+01 0.000000e+00 0.000000e+00)
0.0552119     	1.704780e+00	(1.000000e+01 0.000000e+00 0.000000e+00)
0.0554034     	1.805327e+00	(1.000000e+01 0.000000e+00 0.000000e+00)
0.0555949     	1.858614e+00	(1.000000e+01 0.000000e+00 0.000000e+00)
0.0557864     	1.937509e+00	(1.000000e+01 0.000000e+00 0.000000e+00)
0.055978      	1.994506e+00	(1.000000e+01 0.000000e+00 0.000000e+00)
0.0561695     	2.101493e+00	(1.000000e+01 0.000000e+00 0.000000e+00)
0.056361      	2.128270e+00	(1.000000e+01 0.000000e+00 0.000000e+00)
0.0565525     	2.279608e+00	(1.000000e+01 0.000000e+00 0.000000e+00)
0.0567441     	2.323272e+00	(1.000000e+01 0.000000e+00 0.000000e+00)
0.0569356     	2.453851e+00	(1.000000e+01 0.000000e+00 0.000000e+00)
0.0571271     	2.535068e+00	(1.000000e+01 0.000000e+00 0.000000e+00)
0.0573186     	2.664007e+00	(1.000000e+01 0.000000e+00 0.000000e+00)
0.0575102     	2.755165e+00	(1.000000e+01 0.000000e+00 0.000000e+00)
0.0577017     	2.877005e+00	(1.000000e+01 0.000000e+00 0.000000e+00)
0.0578932     	2.970230e+00	(1.000000e+01 0.000000e+00 0.000000e+00)
0.0580847     	3.097464e+00	(1.000000e+01 0.000000e+00 0.000000e+00)
0.0582763     	3.182993e+00	(1.000000e+01 0.000000e+00 0.000000e+00)
0.0584678     	3.295220e+00	(1.000000e+01 0.000000e+00 0.000000e+00)
0.0586593     	3.345383e+00	(1.000000e+01 0.000000e+00 0.000000e+00)
0.0588508     	3.461124e+00	(1.000000e+01 0.000000e+00 0.000000e+00)
0.0590424     	3.515897e+00	(1.000000e+01 0.000000e+00 0.000000e+00)
0.0592339     	3.630640e+00	(1.000000e+01 0.000000e+00 0.000000e+00)
0.0594254     	3.684365e+00	(1.000000e+01 0.000000e+00 0.000000e+00)
0.0596169     	3.751444e+00	(1.000000e+01 0.000000e+00 0.000000e+00)
0.0598085     	3.842747e+00	(1.000000e+01 0.000000e+00 0.000000e+00)
0.06          	3.901798e+00	(1.000000e+01 0.000000e+00 0.000000e+00)
0.0601961     	3.956993e+00	(1.000000e+01 0.000000e+00 0.000000e+00)
0.0603922     	3.998717e+00	(1.000000e+01 0.000000e+00 0.000000e+00)
0.0605882     	4.054639e+00	(1.000000e+01 0.000000e+00 0.000000e+00)
0.0607843     	4.085093e+00	(1.000000e+01 0.000000e+00 0.000000e+00)
0.0609804     	4.104507e+00	(1.000000e+01 0.000000e+00 0.000000e+00)
0.0611765     	4.110826e+00	(1.000000e+01 0.000000e+00 0.000000e+00)
0.0613725     	4.138363e+00	(1.000000e+01 0.000000e+00 0.000000e+00)
0.0615686     	4.105160e+00	(1.000000e+01 0.000000e+00 0.000000e+00)
0.0617694     	4.118934e+00	(1.000000e+01 0.000000e+00 0.000000e+00)
0.0619701     	4.083833e+00	(1.000000e+01 0.000000e+00 0.000000e+00)
0.0621709     	4.119196e+00	(1.000000e+01 0.000000e+00 0.000000e+00)
0.0623716     	4.047546e+00	(1.000000e+01 0.000000e+00 0.000000e+00)
0.0625724     	4.109680e+00	(1.000000e+01 0.000000e+00 0.000000e+00)
0.0627731     	3.999860e+00	(1.000000e+01 0.000000e+00 0.000000e+00)
0.0629739     	4.014458e+00	(1.000000e+01 0.000000e+00 0.000000e+00)
0.0631746     	3.888075e+00	(1.000000e+01 0.000000e+00 0.000000e+00)
0.0633754     	3.840346e+00	(1.000000e+01 0.000000e+00 0.000000e+00)
0.0635824     	3.729719e+00	(1.000000e+01 0.000000e+00 0.000000e+00)
0.0637894     	3.680425e+00	(1.000000e+01 0.000000e+00 0.000000e+00)
0.0639964     	3.503121e+00	(1.000000e+01 0.000000e+00 0.000000e+00)
0.0642034     	3.460166e+00	(1.000000e+01 0.000000e+00 0.000000e+00)
0.0644105     	3.263614e+00	(1.000000e+01 0.000000e+00 0.000000e+00)
0.0646175     	3.278498e+00	(1.000000e+01 0.000000e+00 0.000000e+00)
0.0648245     	3.034483e+00	(1.000000e+01 0.000000e+00 0.000000e+00)
0.0650315     	3.035005e+00	(1.000000e+01 0.000000e+00 0.000000e+00)
0.0652385     	2.777489e+00	(1.000000e+01 0.000000e+00 0.000000e+00)
0.0654456     	2.809590e+00	(1.000000e+01 0.000000e+00 0.000000e+00)
0.0656526     	2.573108e+00	(1.000000e+01 0.000000e+00 0.000000e+00)
0.0658596     	2.580274e+00	(1.000000e+01 0.000000e+00 0.000000e+00)
0.0660666     	2.364625e+00	(1.000000e+01 0.000000e+00 0.000000e+00)
0.0662851     	2.409750e+00	(1.000000e+01 0.000000e+00 0.000000e+00)
0.0665037     	2.175463e+00	(1.000000e+01 0.000000e+00 0.000000e+00)
0.0667222     	2.270909e+00	(1.000000e+01 0.000000e+00 0.000000e+00)
0.0669407     	2.022100e+00	(1.000000e+01 0.000000e+00 0.000000e+00)
0.0671592     	2.134507e+00	(1.000000e+01 0.000000e+00 0.000000e+00)
0.0673777     	1.874746e+00	(1.000000e+01 0.000000e+00 0.000000e+00)
0.0675963     	2.018065e+00	(1.000000e+01 0.000000e+00 0.000000e+00)
0.0678148     	1.751237e+00	(1.000000e+01 0.000000e+00 0.000000e+00)
0.0680333     	1.919571e+00	(1.000000e+01 0.000000e+00 0.000000e+00)
0.0682518     	1.656332e+00	(1.000000e+01 0.000000e+00 0.000000e+00)
0.0684703     	1.862255e+00	(1.000000e+01 0.000000e+00 0.000000e+00)
0.0686889     	1.637918e+00	(1.000000e+01 0.000000e+00 0.000000e+00)
0.0689074     	1.853688e+00	(1.000000e+01 0.000000e+00 0.000000e+00)
0.0691259     	1.681359e+00	(1.000000e+01 0.000000e+00 0.000000e+00)
0.0693444     	1.858189e+00	(1.000000e+01 0.000000e+00 0.000000e+00)
0.069563      	1.761060e+00	(1.000000e+01 0.000000e+00 0.000000e+00)
0.0697815     	1.998050e+00	(1.000000e+01 0.000000e+00 0.000000e+00)
0.07          	1.969472e+00	(1.000000e+01 0.000000e+00 0.000000e+00)
0.0702326     	2.150780e+00	(1.000000e+01 0.000000e+00 0.000000e+00)
0.0704651     	2.221782e+00	(1.000000e+01 0.000000e+00 0.000000e+00)
0.0706977     	2.421622e+00	(1.000000e+01 0.000000e+00 0.000000e+00)
0.0709302     	2.558795e+00	(1.000000e+01 0.000000e+00 0.000000e+00)
0.0711628     	2.769574e+00	(1.000000e+01 0.000000e+00 0.000000e+00)
0.0713953     	2.979699e+00	(1.000000e+01 0.000000e+00 0.000000e+00)
0.0716279     	3.280175e+00	(1.000000e+01 0.000000e+00 0.000000e+00)
0.0718605     	3.534211e+00	(1.000000e+01 0.000000e+00 0.000000e+00)
0.072093      	3.884413e+00	(1.000000e+01 0.000000e+00 0.000000e+00)
0.0723256     	4.182066e+00	(1.000000e+01 0.000000e+00 0.000000e+00)
0.0725581     	4.570857e+00	(1.000000e+01 0.000000e+00 0.000000e+00)
0.0727907     	4.918884e+00	(1.000000e+01 0.000000e+00 0.000000e+00)
0.0730233     	5.350770e+00	(1.000000e+01 0.000000e+00 0.000000e+00)
0.0732558     	5.719244e+00	(1.000000e+01 0.000000e+00 0.000000e+00)
0.0734884     	6.150014e+00	(1.000000e+01 0.000000e+00 0.000000e+00)
0.0737209     	6.514233e+00	(1.000000e+01 0.000000e+00 0.000000e+00)
0.0739535     	6.933991e+00	(1.000000e+01 0.000000e+00 0.000000e+00)
0.074186      	7.302266e+00	(1.000000e+01 0.000000e+00 0.000000e+00)
0.0744186     	7.677956e+00	(1.000000e+01 0.000000e+00 0.000000e+00)
0.0746512     	8.017676e+00	(1.000000e+01 0.000000e+00 0.000000e+00)
0.0748837     	8.341458e+00	(1.000000e+01 0.000000e+00 0.000000e+00)
0.0751163     	8.543948e+00	(1.000000e+01 0.000000e+00 0.000000e+00)
0.0753488     	8.739482e+00	(1.000000e+01 0.000000e+00 0.000000e+00)
0.0755814     	8.828681e+00	(1.000000e+01 0.000000e+00 0.000000e+00)
0.075814      	8.896737e+00	(1.000000e+01 0.000000e+00 0.000000e+00)
0.0760465     	8.852989e+00	(1.000000e+01 0.000000e+00 0.000000e+00)
0.0762791     	8.772936e+00	(1.000000e+01 0.000000e+00 0.000000e+00)
0.0765116     	8.591110e+00	(1.000000e+01 0.000000e+00 0.000000e+00)
0.0767442     	8.345725e+00	(1.000000e+01 0.000000e+00 0.000000e+00)
0.0769767     	8.023029e+00	(1.000000e+01 0.000000e+00 0.000000e+00)
0.0772093     	7.664407e+00	(1.000000e+01 0.000000e+00 0.000000e+00)
0.0774419     	7.219306e+00	(1.000000e+01 0.000000e+00 0.000000e+00)
0.0776744     	6.762620e+00	(1.000000e+01 0.000000e+00 0.000000e+00)
0.077907      	6.229768e+00	(1.000000e+01 0.000000e+00 0.000000e+00)
0.0781395     	5.684457e+00	(1.000000e+01 0.000000e+00 0.000000e+00)
0.0783721     	5.140898e+00	(1.000000e+01 0.000000e+00 0.000000e+00)
0.0786047     	4.581951e+00	(1.000000e+01 0.000000e+00 0.000000e+00)
0.0788372     	4.059125e+00	(1.000000e+01 0.000000e+00 0.000000e+00)
0.0790698     	3.572409e+00	(1.000000e+01 0.000000e+00 0.000000e+00)
0.0793023     	3.115191e+00	(1.000000e+01 0.000000e+00 0.000000e+00)
0.0795349     	2.724572e+00	(1.000000e+01 0.000000e+00 0.000000e+00)
0.0797674     	2.376242e+00	(1.000000e+01 0.000000e+00 0.000000e+00)
0.08          	2.104237e+00	(1.000000e+01 0.000000e+00 0.000000e+00)
0.0802273     	1.976356e+00	(1.000000e+01 0.000000e+00 0.000000e+00)
0.0804545     	1.774526e+00	(1.000000e+01 0.000000e+00 0.000000e+00)
0.0806818     	1.737556e+00	(1.000000e+01 0.000000e+00 0.000000e+00)
0.0809037     	1.695021e+00	(1.000000e+01 0.000000e+00 0.000000e+00)
0.0811255     	1.763258e+00	(1.000000e+01 0.000000e+00 0.000000e+00)
0.0813474     	1.820887e+00	(1.000000e+01 0.000000e+00 0.000000e+00)
0.0815637     	2.023129e+00	(1.000000e+01 0.000000e+00 0.000000e+00)
0.08178       	2.158740e+00	(1.000000e+01 0.000000e+00 0.000000e+00)
0.0819963     	2.457967e+00	(1.000000e+01 0.000000e+00 0.000000e+00)
0.0822127     	2.691194e+00	(1.000000e+01 0.000000e+00 0.000000e+00)
0.0824231     	3.050892e+00	(1.000000e+01 0.000000e+00 0.000000e+00)
0.0826336     	3.404407e+00	(1.000000e+01 0.000000e+00 0.000000e+00)
0.0828441     	3.771582e+00	(1.000000e+01 0.000000e+00 0.000000e+00)
0.0830545     	4.151661e+00	(1.000000e+01 0.000000e+00 0.000000e+00)
0.083265      	4.573103e+00	(1.000000e+01 0.000000e+00 0.000000e+00)
0.0834691     	4.975998e+00	(1.000000e+01 0.000000e+00 0.000000e+00)
0.0836732     	5.419622e+00	(1.000000e+01 0.000000e+00 0.000000e+00)
0.0838773     	5.795925e+00	(1.000000e+01 0.000000e+00 0.000000e+00)
0.0840814     	6.231473e+00	(1.000000e+01 0.000000e+00 0.000000e+00)
0.0842855     	6.565984e+00	(1.000000e+01 0.000000e+00 0.000000e+00)
0.0844825     	6.947516e+00	(1.000000e+01 0.000000e+00 0.000000e+00)
0.0846796     	7.190314e+00	(1.000000e+01 0.000000e+00 0.000000e+00)
0.0848766     	7.504940e+00	(1.000000e+01 0.000000e+00 0.000000e+00)
0.0850737     	7.706847e+00	(1.000000e+01 0.000000e+00 0.000000e+00)
0.0852707     	7.910629e+00	(1.000000e+01 0.000000e+00 0.000000e+00)
0.0854678     	8.029694e+00	(1.000000e+01 0.000000e+00 0.000000e+00)
0.0856648     	8.119492e+00	(1.000000e+01 0.000000e+00 0.000000e+00)
0.0858619     	8.134293e+00	(1.000000e+01 0.000000e+00 0.000000e+00)
0.0860589     	8.130076e+00	(1.000000e+01 0.000000e+00 0.000000e+00)
0.086256      	8.038006e+00	(1.000000e+01 0.000000e+00 0.000000e+00)
0.086453      	7.939977e+00	(1.000000e+01 0.000000e+00 0.000000e+00)
0.0866501     	7.771996e+00	(1.000000e+01 0.000000e+00 0.000000e+00)
0.0868471     	7.602473e+00	(1.000000e+01 0.000000e+00 0.000000e+00)
0.0870442     	7.382432e+00	(1.000000e+01 0.000000e+00 0.000000e+00)
0.0872413     	7.159077e+00	(1.000000e+01 0.000000e+00 0.000000e+00)
0.0874383     	6.923783e+00	(1.000000e+01 0.000000e+00 0.000000e+00)
0.0876354     	6.677411e+00	(1.000000e+01 0.000000e+00 0.000000e+00)
0.0878324     	6.425295e+00	(1.000000e+01 0.000000e+00 0.000000e+00)
0.0880295     	6.208048e+00	(1.000000e+01 0.000000e+00 0.000000e+00)
0.0882265     	5.968495e+00	(1.000000e+01 0.000000e+00 0.000000e+00)
0.0884236     	5.799495e+00	(1.000000e+01 0.000000e+00 0.000000e+00)