# vtk DataFile Version 2.0
tracks
ASCII
DATASET POLYDATA
POINTS 17425 float
-1.001 1e-07 0.0011 -1.0008 9.89312e-08 0.0011 -1.0006 9.78624e-08 0.00110001 -1.0004 9.67935e-08
0.00110001 -1.0002 9.57247e-08 0.00110002 -1 9.46558e-08 0.00110002 -0.996458 7.57246e-08 0.0011001
-0.992916 5.58267e-08 0.00110019 -0.989375 3.59206e-08 0.00110027 -0.985833 1.60063e-08 0.00110036 -0.982987
2.45082e-28 0.00110043 -0.98014 -1.60222e-08 0.0011005 -0.977292 -3.205e-08 0.00110057 -0.974445 -4.80834e-08
0.00110063 -0.971597 -6.41225e-08 0.0011007 -0.96875 -8.01671e-08 0.00110077 -0.9625 -1.15346e-07 0.00110092
-0.95625 -1.50592e-07 0.00110107 -0.95 -1.85863e-07 0.00110123 -0.94375 -2.21157e-07 0.00110138 -0.9375
-2.56476e-07 0.00110153 -0.93125 -2.83965e-07 0.00110168 -0.925 -2.93812e-07 0.00110184 -0.91875 -3.03665e-07
0.00110199 -0.9125 -3.13525e-07 0.00110215 -0.90625 -3.23392e-07 0.0011023 -0.9 -3.33087e-07 0.00110245
-0.89375 -3.42968e-07 0.00110261 -0.8875 -3.52856e-07 0.00110276 -0.88125 -3.6275e-07 0.00110292 -0.875
-3.72652e-07 0.00110307 -0.86875 -3.60764e-07 0.00110322 -0.8625 -3.29169e-07 0.00110337 -0.85625 -2.97552e-07
0.00110351 -0.85 -2.65912e-07 0.00110365 -0.84375 -2.34249e-07 0.00110379 -0.8375 -2.02427e-07 0.00110394
-0.83125 -1.70719e-07 0.00110408 -0.825 -1.38989e-07 0.00110422 -0.81875 -1.07236e-07 0.00110436 -0.8125
-7.54599e-08 0.00110451 -0.81049 -6.0368e-08 0.00110455 -0.80848 -4.19675e-08 0.00110458 -0.806469 -2.35628e-08
0.00110462 -0.804459 -5.15381e-09 0.00110466 -0.803896 2.30686e-19 0.00110467 -0.799367 4.14906e-08 0.00110475
-0.794838 8.30058e-08 0.00110483 -0.790309 1.24546e-07 0.00110491 -0.785779 1.6611e-07 0.001105 -0.78125
2.077e-07 0.00110508 -0.775 2.64974e-07 0.00110519 -0.76875 3.22457e-07 0.00110531 -0.7625 3.79989e-07
0.00110542 -0.75625 4.37571e-07 0.00110553 -0.75 4.95203e-07 0.00110565 -0.74375 5.57104e-07 0.00110574
-0.7375 6.21741e-07 0.0011058 -0.73125 6.86431e-07 0.00110585 -0.725 7.51174e-07 0.00110591 -0.71875
8.1597e-07 0.00110596 -0.7125 8.80192e-07 0.00110602 -0.70625 9.45118e-07 0.00110608 -0.7 1.0101e-06
0.00110613 -0.69375 1.07513e-06 0.00110619 -0.6875 1.14022e-06 0.00110624 -0.68125 1.21473e-06 0.00110625
-0.675 1.30276e-06 0.0011062 -0.66875 1.39086e-06 0.00110615 -0.6625 1.47903e-06 0.0011061 -0.65625
1.56728e-06 0.00110605 -0.65 1.65425e-06 0.001106 -0.64375 1.74282e-06 0.00110595 -0.6375 1.83146e-06
0.0011059 -0.63125 1.92019e-06 0.00110585 -0.625 2.00899e-06 0.0011058 -0.61875 2.10346e-06 0.00110569
-0.6125 2.19013e-06 0.0011055 -0.60625 2.27688e-06 0.00110531 -0.6 2.36371e-06 0.00110513 -0.59375
2.45061e-06 0.00110494 -0.5875 2.53501e-06 0.00110475 -0.58125 2.62235e-06 0.00110456 -0.575 2.70977e-06
0.00110438 -0.56875 2.79728e-06 0.00110419 -0.5625 2.88487e-06 0.001104 -0.55625 2.96395e-06 0.00110372
-0.55 3.0435e-06 0.00110331 -0.54375 3.12312e-06 0.0011029 -0.5375 3.20283e-06 0.00110248 -0.53125
3.28262e-06 0.00110207 -0.525 3.35793e-06 0.00110166 -0.51875 3.43883e-06 0.00110124 -0.5125 3.51983e-06
0.00110083 -0.50625 3.60094e-06 0.00110042 -0.5 3.68216e-06 0.0011 -0.49375 3.7623e-06 0.00109939
-0.4875 3.84519e-06 0.0010985 -0.48125 3.92818e-06 0.00109762 -0.475 4.01128e-06 0.00109673 -0.46875
4.09449e-06 0.00109585 -0.4625 4.16957e-06 0.00109496 -0.45625 4.25506e-06 0.00109408 -0.45 4.34069e-06
0.0010932 -0.44375 4.42648e-06 0.00109231 -0.4375 4.51241e-06 0.00109143 -0.431249 4.61179e-06 0.00109015
-0.424999 4.73186e-06 0.00108829 -0.418749 4.85211e-06 0.00108643 -0.412499 4.97254e-06 0.00108457 -0.406249
5.09315e-06 0.00108272 -0.399998 5.19774e-06 0.00108087 -0.393747 5.32368e-06 0.00107902 -0.387496 5.44984e-06
0.00107717 -0.381246 5.57625e-06 0.00107532 -0.374995 5.70289e-06 0.00107348 -0.368743 5.84266e-06 0.00107075
-0.36249 5.9852e-06 0.00106661 -0.356238 6.12765e-06 0.0010625 -0.349986 6.27003e-06 0.0010584 -0.343734
6.41234e-06 0.00105431 -0.337478 6.52241e-06 0.00105023 -0.331222 6.67432e-06 0.00104617 -0.324967 6.82556e-06
0.00104212 -0.318711 6.97614e-06 0.00103808 -0.312455 7.12606e-06 0.00103406 -0.306193 7.28122e-06 0.001028
-0.299931 7.44743e-06 0.00101892 -0.293669 7.61088e-06 0.00100993 -0.287406 7.77158e-06 0.00100101 -0.281144
7.92949e-06 0.000992179 -0.274873 8.03723e-06 0.000983403 -0.268603 8.20498e-06 0.000974695 -0.262332 8.3669e-06
0.000966065 -0.256061 8.5229e-06 0.000957512 -0.24979 8.67293e-06 0.000949037 -0.244704 8.76966e-06 0.000938373
-0.239619 8.98394e-06 0.000921649 -0.234533 9.18809e-06 0.000905224 -0.229447 9.38202e-06 0.000889093 -0.219578
9.73829e-06 0.000858346 -0.219348 9.74564e-06 0.000857657 -0.219119 9.75298e-06 0.000856968 -0.21889 9.7603e-06
0.00085628 -0.218661 9.76759e-06 0.000855592 -0.218432 9.77486e-06 0.000854905 -0.215291 9.87389e-06 0.000845499
-0.212151 9.93608e-06 0.00083405 -0.20901 9.97962e-06 0.000822754 -0.20587 1.00041e-05 0.000811609 -0.202729
1.00092e-05 0.000800613 -0.19959 1.00893e-05 0.000789786 -0.196452 1.00565e-05 0.00077908 -0.193313 1.00038e-05
0.000768515 -0.190174 9.93064e-06 0.00075809 -0.187035 9.83664e-06 0.000747801 -0.183909 9.77981e-06 0.000734952
-0.180783 9.74128e-06 0.000718939 -0.177656 9.71484e-06 0.000703277 -0.17453 9.70086e-06 0.000687959 -0.171404
9.6997e-06 0.000672977 -0.170356 9.75295e-06 0.000668065 -0.169308 9.75998e-06 0.000663181 -0.168261 9.77765e-06
0.000658335 -0.167213 9.80605e-06 0.000653526 -0.166059 9.84926e-06 0.000648271 -0.16402 9.94908e-06 0.000639063
-0.16198 1.00918e-05 0.000629979 -0.159941 1.02783e-05 0.000621019 -0.157901 1.05093e-05 0.00061218 -0.155862
1.07857e-05 0.00060346 -0.152748 1.1367e-05 0.000585977 -0.149635 1.22469e-05 0.000564885 -0.146522 1.32218e-05
0.000544582 -0.143408 1.42956e-05 0.000525039 -0.140295 1.54721e-05 0.000506229 -0.137177 1.57512e-05 0.000487909
-0.134059 1.72531e-05 0.000470153 -0.130941 1.88002e-05 0.000453038 -0.127823 2.03949e-05 0.000436542 -0.124705
2.20393e-05 0.000420642 -0.121537 2.40039e-05 0.000403171 -0.118368 2.57859e-05 0.000401093 -0.1152 2.72801e-05
0.00039935 -0.112031 2.84697e-05 0.000397962 -0.108854 2.93392e-05 0.000396948 -0.108424 2.93392e-05 0.000396948
-0.107995 2.94311e-05 0.00039688 -0.107565 2.95013e-05 0.000396828 -0.107135 2.95493e-05 0.000396792 -0.106648
2.95785e-05 0.00039677 -0.103877 2.95785e-05 0.00039677 -0.101106 2.86967e-05 0.00039606 -0.0983352 2.68657e-05
0.000394584 -0.0955642 2.40128e-05 0.000392286 -0.0927922 2.00586e-05 0.000389099 -0.0897705 2.00586e-05 0.000389099
-0.0867487 8.28378e-06 0.000383382 -0.083727 -9.62774e-06 0.000374684 -0.0807054 -3.61572e-05 0.000361802 -0.0775601
-7.6829e-05 0.000342053 -1.001 1e-07 0.0537316 -1.00089 8e-08 0.0537317 -1.00078 5.99769e-08
0.0537318 -1.00067 3.99306e-08 0.0537319 -1.00057 1.98612e-08 0.053732 -1.00046 3.06891e-28 0.0537321
-1.00037 -1.69946e-08 0.0537322 -1.00028 -3.40058e-08 0.0537323 -1.00018 -5.10334e-08 0.0537324 -1.00009
-6.80776e-08 0.0537325 -1 -8.51384e-08 0.0537326 -0.99375 -1.24901e-06 0.0537388 -0.9875 -2.42412e-06
0.0537451 -0.98125 -3.60138e-06 0.0537516 -0.975 -4.77468e-06 0.0537583 -0.96875 -5.94402e-06 0.0537653
-0.9625 -7.10787e-06 0.0537725 -0.95625 -8.19303e-06 0.0537798 -0.95 -9.19819e-06 0.0537871 -0.94375
-1.01233e-05 0.0537945 -0.9375 -1.0982e-05 0.0538019 -0.93125 -1.17931e-05 0.0538094 -0.925 -1.25034e-05
0.0538168 -0.91875 -1.30934e-05 0.0538242 -0.9125 -1.35524e-05 0.0538315 -0.90625 -1.38802e-05 0.0538386
-0.9 -1.40743e-05 0.0538457 -0.89375 -1.41353e-05 0.0538525 -0.8875 -1.40609e-05 0.0538592 -0.88125
-1.38507e-05 0.0538657 -0.875 -1.35075e-05 0.0538721 -0.86875 -1.30334e-05 0.0538785 -0.8625 -1.24444e-05
0.0538848 -0.85625 -1.17467e-05 0.0538909 -0.85 -1.09457e-05 0.0538968 -0.84375 -1.00411e-05 0.0539025
-0.8375 -9.0319e-06 0.053908 -0.83125 -7.95896e-06 0.0539132 -0.825 -6.82101e-06 0.0539181 -0.81875
-5.61793e-06 0.0539228 -0.8125 -4.3401e-06 0.0539273 -0.808538 -3.47208e-06 0.05393 -0.804575 -2.57929e-06
0.0539328 -0.800613 -1.66131e-06 0.0539355 -0.796651 -7.27401e-07 0.0539381 -0.793611 2.10185e-18 0.05394
-0.791139 5.9829e-07 0.0539415 -0.788666 1.2021e-06 0.053943 -0.786194 1.81143e-06 0.0539444 -0.783722
2.42629e-06 0.0539458 -0.78125 3.04667e-06 0.0539471 -0.775 4.6288e-06 0.0539503 -0.76875 6.22054e-06
0.0539532 -0.7625 7.82154e-06 0.0539557 -0.75625 9.43182e-06 0.0539579 -0.75 1.10582e-05 0.0539599
-0.74375 1.27115e-05 0.0539617 -0.7375 1.43828e-05 0.0539633 -0.73125 1.6069e-05 0.0539646 -0.725
1.77687e-05 0.0539654 -0.71875 1.94817e-05 0.0539658 -0.7125 2.12077e-05 0.0539659 -0.70625 2.29908e-05
0.0539654 -0.7 2.48301e-05 0.0539644 -0.69375 2.67258e-05 0.0539629 -0.6875 2.86789e-05 0.053961
-0.68125 3.06923e-05 0.0539588 -0.675 3.27898e-05 0.0539563 -0.66875 3.49634e-05 0.0539533 -0.6625
3.72098e-05 0.0539497 -0.65625 3.95293e-05 0.0539455 -0.65 4.19223e-05 0.0539409 -0.64375 4.43524e-05
0.0539355 -0.6375 4.6816e-05 0.0539295 -0.63125 4.93134e-05 0.0539229 -0.625 5.18464e-05 0.0539157
-0.61875 5.44203e-05 0.0539082 -0.6125 5.6952e-05 0.0539001 -0.60625 5.94457e-05 0.0538914 -0.6
6.19058e-05 0.0538819 -0.59375 6.43322e-05 0.0538716 -0.5875 6.67296e-05 0.0538604 -0.58125 6.90922e-05
0.0538482 -0.575 7.1415e-05 0.0538348 -0.56875 7.3698e-05 0.0538203 -0.5625 7.59379e-05 0.0538049
-0.55625 7.81403e-05 0.0537889 -0.55 8.03586e-05 0.0537721 -0.54375 8.25756e-05 0.0537541 -0.5375
8.47878e-05 0.0537345 -0.53125 8.69953e-05 0.0537133 -0.525 8.92075e-05 0.0536905 -0.51875 9.14354e-05
0.0536655 -0.5125 9.36624e-05 0.0536384 -0.50625 9.58888e-05 0.053609 -0.5 9.81142e-05 0.0535777
-0.49375 0.00010035 0.0535453 -0.4875 0.000102624 0.0535111 -0.48125 0.000104918 0.0534743 -0.475
0.000107232 0.0534342 -0.46875 0.000109567 0.0533909 -0.4625 0.000111957 0.0533443 -0.456249 0.00011445
0.0532929 -0.449999 0.000117016 0.0532367 -0.443749 0.000119656 0.0531755 -0.437499 0.000122378 0.0531106
-0.431248 0.000125225 0.0530432 -0.424998 0.000128275 0.052972 -0.418747 0.00013144 0.0528954 -0.412497
0.000134702 0.0528114 -0.406246 0.000138063 0.05272 -0.399993 0.000141599 0.0526213 -0.393742 0.000145277
[...]
POINT_DATA 17425
FIELD attributes 3
age 1 17425 float
0 1.00111e-05 2.00222e-05 3.00333e-05 4.00444e-05 5.00555e-05 0.000227341 0.000404636 0.000581932 0.000759228 0.000901672
0.00104421 0.00118675 0.00132929 0.00147183 0.00161437 0.00192723 0.0022401 0.00255296 0.00286583 0.00317869
0.00349158 0.00380449 0.0041174 0.00443031 0.00474323 0.00505614 0.00536905 0.00568196 0.00599488 0.00630779
0.00662073 0.0069337 0.00724666 0.00755963 0.0078726 0.00818557 0.00849854 0.00881151 0.00912447 0.00943744
0.00953811 0.00963879 0.00973948 0.00984016 0.00986834 0.0100952 0.010322 0.0105489 0.0107757 0.0110026
0.0113156 0.0116286 0.0119417 0.0122547 0.0125677 0.0128808 0.0131939 0.013507 0.0138201 0.0141332
0.0144463 0.0147594 0.0150725 0.0153856 0.0156987 0.0160118 0.016325 0.0166382 0.0169514 0.0172645
0.0175777 0.0178909 0.018204 0.0185172 0.0188304 0.0191436 0.0194568 0.0197701 0.0200833 0.0203966
0.0207098 0.0210231 0.0213363 0.0216496 0.0219629 0.0222761 0.0225895 0.0229028 0.0232162 0.0235295
0.0238429 0.0241562 0.0244696 0.0247829 0.0250963 0.0254097 0.0257231 0.0260366 0.0263501 0.0266636
0.026977 0.0272905 0.027604 0.0279174 0.0282309 0.0285445 0.0288581 0.0291717 0.0294854 0.029799
0.0301126 0.0304263 0.0307399 0.0310536 0.0313672 0.0316811 0.031995 0.032309 0.0326229 0.0329368
0.0332509 0.033565 0.0338791 0.0341932 0.0345073 0.0348218 0.0351365 0.0354511 0.0357658 0.0360804
0.0363954 0.0367105 0.0370255 0.0373405 0.0376555 0.0379111 0.038168 0.0384248 0.0386815 0.0391797
0.0391913 0.0392029 0.0392144 0.039226 0.0392376 0.039396 0.0395546 0.0397131 0.0398715 0.04003
0.0401884 0.0403467 0.0405051 0.0406634 0.0408217 0.0409794 0.0411371 0.0412947 0.0414524 0.04161
0.0416628 0.0417156 0.0417684 0.0418212 0.0418794 0.0419821 0.0420849 0.0421876 0.0422904 0.0423931
0.04255 0.0427069 0.0428638 0.0430207 0.0431775 0.0433345 0.0434915 0.0436485 0.0438054 0.0439623
0.0441218 0.0442836 0.0444454 0.0446072 0.0447695 0.0447914 0.0448133 0.0448353 0.0448572 0.0448821
0.0450237 0.0451653 0.0453068 0.0454483 0.0455897 0.0457452 0.0459154 0.0461034 0.0463131 0.0465599
0 5.60742e-06 1.12151e-05 1.68232e-05 2.24315e-05 2.79755e-05 3.27143e-05 3.74532e-05 4.21924e-05 4.69317e-05
5.16713e-05 0.000374705 0.000697847 0.00102112 0.00134453 0.00166808 0.00199177 0.00231559 0.00263954 0.00296362
0.00328783 0.00361217 0.00393666 0.0042613 0.0045861 0.00491104 0.00523614 0.00556139 0.00588681 0.00621238
0.00653811 0.00686402 0.0071901 0.00751634 0.00784273 0.00816928 0.00849599 0.00882286 0.00914989 0.00947708
0.00980443 0.0100121 0.0102198 0.0104276 0.0106355 0.010795 0.0109248 0.0110546 0.0111845 0.0113143
0.0114442 0.0117727 0.0121013 0.0124302 0.0127592 0.0130885 0.013418 0.0137477 0.0140776 0.0144077
0.014738 0.0150685 0.0153992 0.01573 0.016061 0.0163922 0.0167236 0.0170552 0.0173871 0.0177191
0.0180513 0.0183837 0.0187164 0.0190492 0.0193823 0.0197157 0.0200493 0.0203832 0.0207173 0.0210518
0.0213865 0.0217214 0.0220567 0.0223922 0.022728 0.0230641 0.0234005 0.0237372 0.0240743 0.0244117
0.0247494 0.0250875 0.025426 0.0257649 0.0261043 0.026444 0.0267842 0.0271248 0.0274659 0.0278074
0.0281495 0.028492 0.0288352 0.0291789 0.0295232 0.029868 0.0302134 0.0305594 0.030906 0.0312534
0.0316015 0.0319504 0.0323003 0.0326511 0.0330028 0.0333555 0.0337091 0.0340636 0.0344191 0.0347758
0.0351339 0.0354935 0.0358546 0.0362171 0.036581 0.0369466 0.0373134 0.0376813 0.0380503 0.0384212
0.0387951 0.0391729 0.0395527 0.0399345 0.0403181 0.0407069 0.0409015 0.0410966 0.0412923 0.0414885
0.0416865 0.0418844 0.0420824 0.0422805 0.042479 0.042679 0.0428787 0.043079 0.0432798 0.0434806
0.0436846 0.0438858 0.0440868 0.0442878 0.0444886 0.0446926 0.0447222 0.0447518 0.0447813 0.0448108
0.044839 0.04501 0.045181 0.0453521 0.0455232 0.045696 0.0458903 0.0460846 0.046279 0.0464734
0.0466693 0.0468798 0.0470901 0.0473004 0.0475108 0.0477452 0.0479842 0.048218 0.0484397 0.0486481
0.0488535 0.0488806 0.0489068 0.0489323 0.0489586 0.048984 0.0492182 0.0494785 0.0497914 0.0501856
0.050628 0.0510412 0.0514071 0.051759 0.0521473 0.0526986 0.0528983 0.0531109 0.0533106 0.0535015
0.0559198 0 4.57726e-06 9.15455e-06 1.37319e-05 1.83092e-05 2.28838e-05 2.86705e-05 3.44573e-05 4.02442e-05
4.60311e-05 5.1818e-05 0.000375692 0.000699682 0.00102379 0.00134801 0.00167236 0.00199685 0.00232144 0.00264614
0.00297096 0.0032959 0.00362096 0.00394616 0.00427149 0.00459696 0.00492256 0.0052483 0.00557417 0.0059002
0.00622637 0.00655268 0.00687915 0.00720575 0.0075325 0.0078594 0.00818643 0.0085136 0.00884092 0.00916839
0.009496 0.00982375 0.00998805 0.0101524 0.0103168 0.0104812 0.0106366 0.0108023 0.0109679 0.0111336
0.0112993 0.0114651 0.0117938 0.0121227 0.0124518 0.0127811 0.0131105 0.0134401 0.0137699 0.0140999
0.0144301 0.0147604 0.0150909 0.0154216 0.0157525 0.0160835 0.0164147 0.0167461 0.0170777 0.0174095
0.0177415 0.0180737 0.018406 0.0187387 0.0190716 0.0194047 0.0197381 0.0200717 0.0204055 0.0207397
0.0210741 0.0214088 0.0217438 0.0220792 0.0224149 0.0227508 0.0230871 0.0234238 0.0237607 0.0240981
0.0244358 0.024774 0.0251126 0.0254517 0.0257914 0.0261315 0.0264722 0.0268133 0.027155 0.0274972
0.02784 0.0281836 0.0285278 0.0288729 0.0292189 0.0295656 0.0299131 0.0302613 0.0306105 0.0309607
0.0313117 0.0316641 0.0320179 0.0323735 0.0327306 0.0330891 0.0334492 0.0338109 0.0341744 0.0345396
0.0349065 0.0352762 0.0356488 0.0360256 0.0364049 0.0367863 0.0371722 0.0375596 0.037951 0.0383463
0.0387455 0.0391555 0.039198 0.0392405 0.0392831 0.0393257 0.0393635 0.0395302 0.0396978 0.0398661
0.0400352 0.0402081 0.0404249 0.0406433 0.0408634 0.0410849 0.0413173 0.0415445 0.0417724 0.0420007
0.0422294 0.042471 0.0425496 0.0426322 0.042716 0.0427982 0.0428794 0.0430371 0.0431948 0.0433527
0.0435107 0.0436764 0.0439245 0.0442223 0.0445969 0.0449607 0.0452604 0.0453462 0.0454337 0.0455233
0.0456149 0.0457085 0.0458026 0.0459031 0.0460111 0.0461279 0.0462474 0.0464819 0.0467626 0.0471127
0.0474463 0.0477302 0.0482635 0.0488662 0.0495627 0.0503856 0.051362 0.0516043 0.0518788 0.0522181
0.0526626 0.0530693 0.0538929 0.054534 0.0552411 0.0561318 0.0594277 0 5.08751e-06 1.01751e-05
1.52627e-05 2.03503e-05 2.54395e-05 3.07276e-05 3.60157e-05 4.13038e-05 4.6592e-05 5.18802e-05 0.000376146 0.00070051
0.00102497 0.00134953 0.00167419 0.00199896 0.00232383 0.00264881 0.00297388 0.00329906 0.00362434 0.00394975
0.00427528 0.00460093 0.00492671 0.00525261 0.00557865 0.00590483 0.00623115 0.00655761 0.00688421 0.00721096
0.00753784 0.00786486 0.00819202 0.00851932 0.00884677 0.00917437 0.00950211 0.00983 0.00993216 0.0100343
0.0101365 0.0102387 0.0103429 0.0105686 0.0107943 0.0110201 0.011246 0.011472 0.0118009 0.0121299
0.0124591 0.0127885 0.0131181 0.0134479 0.0137778 0.0141079 0.0144382 0.0147687 0.0150994 0.0154303
0.0157613 0.0160925 0.016424 0.0167556 0.0170874 0.0174194 0.0177517 0.0180841 0.0184168 0.0187498
0.019083 0.0194165 0.0197503 0.0200843 0.0204186 0.0207533 0.0210882 0.0214235 0.0217591 0.0220952
0.0224315 0.0227683 0.0231054 0.0234429 0.0237809 0.0241194 0.0244583 0.0247978 0.0251377 0.0254784
0.0258196 0.0261615 0.026504 0.0268471 0.0271911 0.0275359 0.0278815 0.028228 0.0285754 0.028924
0.0292737 0.0296246 0.0299766 0.0303299 0.0306849 0.0310414 0.0313997 0.0317598 0.0318091 0.0318584
0.0319078 0.0319572 0.0320001 0.0323157 0.0326331 0.0329523 0.0332733 0.0335967 0.0339725 0.034352
0.0347353 0.0351226 0.0355155 0.0359135 0.0363172 0.0367286 0.0371478 0.0375816 0.0378037 0.0380283
0.0382552 0.0384846 0.0387224 0.038852 0.0389832 0.039116 0.0392499 0.0392565 0.0393986 0.0395418
0.0396858 0.0398308 0.039948 0.0399547 0.0399615 0.0399683 0.039975 0.0399818 0.0402378 0.0404988
0.0407644 0.0410341 0.0413451 0.0416238 0.0419039 0.0421849 0.0424662 0.04279 0.0427914 0.0427928
0.0427941 0.0427955 0.0427969 0.0431187 0.043482 0.0439081 0.0444234 0.045142 0.0454369 0.0457398
0.0460543 0.0464115 0.0467821 0.0474625 0.0479025 0.0483407 0.0487678 0.0518162 0 5.05637e-06
1.01128e-05 1.51692e-05 2.02256e-05 2.52821e-05 3.0606e-05 3.593e-05 4.1254e-05 4.6578e-05 5.19021e-05 0.000376301
0.0007008 0.0010254 0.0013501 0.00167491 0.00199983 0.00232487 0.00265001 0.00297526 0.0033006 0.00362605
0.00395162 0.00427732 0.00460313 0.00492907 0.00525514 0.00558134 0.00590767 0.00623414 0.00656075 0.00688749
0.00721437 0.00754139 0.00786855 0.00819584 0.00852328 0.00885086 0.00917859 0.00950646 0.00983449 0.0101254
0.0104164 0.0107075 0.0109988 0.0112924 0.0113293 0.0113663 0.0114032 0.0114402 0.0114771 0.0118061
0.0121353 0.0124647 0.0127942 0.013124 0.0134539 0.013784 0.0141143 0.0144448 0.0147755 0.0151064
0.0154375 0.0157688 0.0161003 0.0164319 0.0167638 0.017096 0.0174283 0.0177609 0.0180938 0.0184269
0.0187602 0.0190939 0.0194278 0.0197621 0.0200966 0.0204315 0.0207668 0.0211024 0.0214384 0.0217748
0.0221115 0.0224487 0.0227863 0.0231244 0.023463 0.0238021 0.0241418 0.0244821 0.024823 0.0251645
0.0255066 0.0258496 0.0261933 0.0265379 0.0268833 0.0272298 0.0275774 0.0279261 0.0282759 0.0286268
0.0289791 0.029333 0.0296884 0.0300457 0.0304047 0.0307662 0.0311302 0.0314966 0.0318656 0.032237
0.0326117 0.0329899 0.033372 0.0337589 0.0341499 0.0345489 0.0349563 0.0353724 0.0357994 0.0360176
0.0362387 0.0364629 0.0366903 0.0369229 0.0369826 0.0370428 0.0371032 0.0371641 0.037211 0.0373957
0.0375838 0.0377751 0.0379698 0.0381721 0.0384252 0.0386867 0.0389569 0.039005 0.0396172 0.0399426
0.0402834 0.040639 0.0410087 0.041449 0.0415111 0.0415718 0.041634 0.0416988 0.0417568 0.0422405
0.0428064 0.0434995 0.04435 0.0467341 0.0472903 0.0478811 0.0484776 0.0492174 0.0514546 0
5.33065e-06 1.06613e-05 1.5992e-05 2.13228e-05 2.66538e-05 3.17024e-05 3.67511e-05 4.17998e-05 4.68485e-05 5.18973e-05
0.000376266 0.00070073 0.00102529 0.00134996 0.00167475 0.00199966 0.00232467 0.00264977 0.00297498 0.00330029
0.00362571 0.00395126 0.00427693 0.00460273 0.00492866 0.00525471 0.00558091 0.00590724 0.00623372 0.00656034
0.00688711 0.00721402 0.00754108 0.00786829 0.00819563 0.00852313 0.00885077 0.00917857 0.00950652 0.00983463
0.00996226 0.0100899 0.0102176 0.0103453 0.0104689 0.0106706 0.0108723 0.0110741 0.011276 0.0114779
0.0118071 0.0121364 0.0124659 0.0127956 0.0131255 0.0134556 0.0137859 0.0141164 0.0144471 0.014778
0.0151091 0.0154404 0.0157719 0.0161037 0.0164356 0.0167678 0.0171002 0.0174329 0.0177659 0.0180991
0.0184325 0.0187663 0.0191003 0.0194347 0.0197694 0.0201044 0.0204398 0.0207756 0.0211118 0.0214484
0.0217853 0.0221227 0.0224606 0.022799 0.0231378 0.0234772 0.0238172 0.0241579 0.0244992 0.0248412
0.0251838 0.0255273 0.0258717 0.026217 0.0265631 0.0269103 0.0272587 0.0276085 0.0279595 0.0283118
0.0286655 0.0290211 0.0293786 0.0297379 0.0300994 0.0304635 0.0308306 0.0312008 0.0315741 0.0319504
0.0323311 0.0327167 0.0331073 0.0335029 0.0339045 0.0342474 0.0345991 0.03496 0.0353046 0.0360958
0.0363397 0.0365903 0.0368479 0.0371129 0.0373863 0.0376673 0.0379618 0.0382708 0.0385959 0.0389408
0.0392922 0.0396975 0.040173 0.0406945 0.0412525 0.0416212 0.0420595 0.042607 0.0433186 0.044173
0.0446195 0.0451572 0.0458214 0.0466545 0.0486765 0 5.92854e-06 1.18571e-05 1.77857e-05 2.37144e-05
2.96497e-05 3.40975e-05 3.85454e-05 4.29933e-05 4.74412e-05 5.18891e-05 0.000376206 0.000700626 0.00102516 0.00134982
0.0016746 0.00199949 0.0023245 0.00264961 0.00297484 0.00330017 0.00362561 0.00395119 0.00427689 0.00460272
0.00492869 0.00525478 0.00558102 0.0059074 0.00623392 0.00656059 0.0068874 0.00721437 0.00754148 0.00786875
0.00819616 0.00830348 0.00841081 0.00851816 0.00862553 0.00873081 0.00895165 0.00917257 0.00939356 0.00961463
0.00983577 0.0101641 0.0104927 0.0108214 0.0111503 0.0114794 0.0118087 0.0121381 0.0124678 0.0127976
0.0131277 0.0134579 0.0137884 0.0141191 0.0144499 0.014781 0.0151123 0.0154438 0.0157756 0.0161075
0.0164397 0.0167721 0.0171048 0.0174377 0.0177709 0.0181044 0.0184381 0.0187722 0.0191065 0.0194412
0.0197763 0.0201116 0.0204474 0.0207835 0.0211201 0.021457 0.0217943 0.0221322 0.0224705 0.0228094
0.0231487 0.0234886 0.0238291 0.0241703 0.0245121 0.0248547 0.0251979 0.025542 0.0258871 0.0262331
0.02658 0.0269279 0.0272771 0.0276276 0.0279795 0.0283327 0.0286875 0.0290443 0.0294031 0.029764
0.030127 0.0304927 0.0308615 0.0312334 0.0316086 0.031987 0.0323707 0.0327599 0.0331546 0.033555
0.0339613 0.034245 0.0345341 0.034831 0.0351347 0.0351835 0.0353827 0.0355848 0.03579 0.0359983
0.0362099 0.0364626 0.0367228 0.0369918 0.0372709 0.0375609 0.0378702 0.0381965 0.0385416 0.0389077
0.0392976 0.0397765 0.0403539 0.0410999 0.0421435 0.0440092 0 6.27357e-06 1.25472e-05 1.88208e-05
2.50945e-05 3.13814e-05 3.54841e-05 3.95868e-05 4.36895e-05 4.77922e-05 5.1895e-05 0.000376249 0.000700701 0.00102527
0.00134995 0.00167474 0.00199965 0.00232466 0.00264977 0.00297498 0.00330029 0.00362571 0.00395126 0.00427695
0.00460276 0.00492871 0.00525479 0.00558102 0.0059074 0.00623393 0.00656062 0.00688745 0.00721443 0.00754157
0.00786886 0.008157 0.00816487 0.00817273 0.00818059 0.00818845 0.00819631 0.00852391 0.00885167 0.0091796
0.00950769 0.00983594 0.0101644 0.010493 0.0108217 0.0111507 0.0114799 0.0118092 0.0121387 0.0124685
0.0127984 0.0131285 0.0134588 0.0137894 0.0141201 0.0144511 0.0147822 0.0151136 0.0154452 0.015777
0.016109 0.0164413 0.0167737 0.0171065 0.0174395 0.0177728 0.0181063 0.0184401 0.0187742 0.0191087
0.0194435 0.0197785 0.020114 0.0204498 0.020786 0.0211226 0.0214595 0.0217969 0.0221347 0.0224731
0.0228119 0.0231511 0.0234909 0.0238313 0.0241724 0.0245141 0.0248564 0.0251994 0.0255432 0.0258879
0.0262335 0.0265799 0.0269273 0.0272759 0.0276256 0.0279766 0.0283288 0.0286824 0.0290377 0.0293947
0.0297535 0.0301142 0.0304771 0.0308428 0.0312112 0.0315823 0.0319562 0.0323335 0.0327151 0.0331011
0.0334915 0.0338867 0.0342875 0.0346993 0.0351204 0.0355513 0.0359937 0.0361278 0.0362634 0.0364007
0.0365396 0.0365828 0.0367011 0.0368207 0.0369415 0.0370636 0.0371875 0.0372306 0.037274 0.0373177
0.0373616 0.037397 0.0376169 0.0378433 0.0380764 0.0383167 0.0385708 0.0388821 0.0392077 0.0395505
0.0399114 0.0403355 0.0407981 0.0413616 0.0420994 0.0431133 0.0447763 0.0452642 0.0458108 0.0464122
0.0471285 0.0490703 0 6.34447e-06 1.2689e-05 1.90336e-05 2.53782e-05 3.17325e-05 3.57666e-05 3.98006e-05
4.38347e-05 4.78688e-05 5.19029e-05 0.000376309 0.00070081 0.00102541 0.00135011 0.00167494 0.00199989 0.00232495
0.00265012 0.00297541 0.0033008 0.00362629 0.00395192 0.00427768 0.00460357 0.00492959 0.00525575 0.00558205
0.00590849 0.00623509 0.00656183 0.00676069 0.00695962 0.0071586 0.00735764 0.00752847 0.00766232 0.0077962
0.0079301 0.00806402 0.00819797 0.00852563 0.00885344 0.00918142 0.00950957 0.00983787 0.0101663 0.010495
0.0108238 0.0111529 0.0114821 0.0118115 0.012141 0.0124708 0.0128008 0.013131 0.0134613 0.0137919
0.0141227 0.0144537 0.0147849 0.0151163 0.0154479 0.0157797 0.0161117 0.0164439 0.0167764 0.0171092
0.0174421 0.0177754 0.0181089 0.0184426 0.0187767 0.0191111 0.0194457 0.0197807 0.020116 0.0204517
0.0207878 0.0211242 0.021461 0.0217981 0.0221357 0.0224737 0.0228121 0.023151 0.0234904 0.0238303
0.0241709 0.024512 0.0248537 0.0251959 0.0255389 0.0258825 0.0262269 0.0265721 0.0269181 0.0272652
0.0276133 0.0279624 0.0283125 0.0286636 0.0290159 0.0293696 0.0297246 0.0300811 0.0304394 0.0307999
0.0311626 0.0315273 0.0318938 0.0322629 0.0326346 0.0330091 0.0333862 0.0337673 0.0341533 0.034546
0.0349454 0.0353511 0.035764 0.0359744 0.036187 0.0364017 0.0366187 0.0368391 0.0370631 0.0372898
0.0375194 0.037752 0.0379916 0.0380341 0.0380767 0.0381195 0.0381625 0.0381975 0.0384039 0.0386147
0.0388281 0.0390444 0.0392699 0.0393989 0.0395295 0.0396615 0.0397949 0.0398662 0.0400301 0.0401961
0.040364 0.0405339 0.0407192 0.0410458 0.0413782 0.0417155 0.0420644 0.0424801 0.0425731 0.0426638
0.0427571 0.0428531 0.0429447 0.0434222 0.0439535 0.0445728 0.0453002 0.0460803 0.0463998 0.0467343
0.0470814 0.0474382 0.0478389 0.0484503 0.0488538 0.0491655 0.0495176 0.052239 0 6.52211e-06
1.30443e-05 1.95665e-05 2.60888e-05 3.26312e-05 3.64855e-05 4.03397e-05 4.41939e-05 4.80482e-05 5.19025e-05 0.000376304
0.000700802 0.0010254 0.00135009 0.00167488 0.00199978 0.0023248 0.00264992 0.00297515 0.00330049 0.00362595
0.00395153 0.00427725 0.0046031 0.00492909 0.00525521 0.00558149 0.00590792 0.0062345 0.00656122 0.00669412
0.00682704 0.00695998 0.00709295 0.00721228 0.00740918 0.00760613 0.00780314 0.0080002 0.00819732 0.00852496
0.00885278 0.00918076 0.00950891 0.00983722 0.0101657 0.0104944 0.0108232 0.0111522 0.0114814 0.0118108
0.0121404 0.0124702 0.0128001 0.0131303 0.0134606 0.0137912 0.0141219 0.0144528 0.0147839 0.0151152
0.0154468 0.0157785 0.0161104 0.0164426 0.016775 0.0171076 0.0174404 0.0177735 0.0181069 0.0184405
0.0187743 0.0191085 0.019443 0.0197778 0.0201128 0.0204482 0.020784 0.0211201 0.0214565 0.0217933
0.0221305 0.022468 0.022806 0.0231444 0.0234831 0.0238224 0.0241622 0.0245025 0.0248433 0.0251846
0.0255264 0.0258689 0.0262121 0.0265558 0.0269003 0.0272455 0.0275915 0.0279384 0.028286 0.0286344
0.0289837 0.0293339 0.0296852 0.0300376 0.0303911 0.0307461 0.0311025 0.0314604 0.0318197 0.0321805
0.0325427 0.0329067 0.0332728 0.0336411 0.034012 0.0343859 0.0347628 0.0351427 0.0355257 0.0359119
0.0363011 0.0366936 0.0370911 0.0374967 0.0376153 0.0377344 0.0378539 0.0379739 0.0380601 0.0381571
0.0382544 0.0383519 0.0384497 0.0385483 0.0387645 0.0389823 0.039202 0.0394235 0.0396511 0.0398786
0.0401088 0.0403415 0.0405765 0.0408226 0.0410593 0.041297 0.0415358 0.0417754 0.0420297 0.0420855
0.0421431 0.042201 0.0422582 0.0423135 0.042406 0.0424986 0.0425913 0.0426839 0.0427229 0.042832
0.0429411 0.0430501 0.0431592 0.043273 0.0435296 0.0438363 0.0442196 0.0445864 0.0448916 0.0449792
0.0450687 0.0451604 0.0452545 0.0453505 0.0456209 0.045949 0.0463701 0.0469606 0.0473755 0.0478302
0.0483347 0.0489068 0.0495646 0.0503009 0.0505498 0.0508252 0.0511701 0.0515725 0.0518755 0.0525127
0.0529935 0.0534594 0.0539027 0.0542566 0.0543886 0.0545178 0.0546443 0.0547718 0.0549075 0.0558294
0.0562136 0.0566136 0.0570309 0.0577221 0.0578434 0.0579656 0.0580887 0.0582144 0.0583529 0.0591816
0.0596275 0.0601293 0.0607141 0.0628905 0.0647799 0.0653967 0.0659255 0.0663935 0.0667746 0.0668359
0.0668977 0.0669602 0.0670241 0.067093 0.0684749 0.0690213 0.0694587 0.0698233 0.0700751 0.070134
0.0701927 0.0702515 0.070311 0.0703755 0.0709725 0.0712852 0.0716092 0.0719453 0.0723622 0.0730974
0.0734201 0.0737144 0.0739848 0.0743746 0.0744245 0.0744774 0.0745337 0.074594 0.0746601 0.0753169
0.0756778 0.0760438 0.0764151 0.0768338 0.0776972 0.0780121 0.0783116 0.0785973 0.0788446 0.0788911
0.0789391 0.0789887 0.07904 0.0790963 0.0801274 0.0804822 0.080824 0.0812028 0.0816013 0.0816463
0.0816923 0.0817394 0.0817881 0.0818439 0.0826424 0.0829838 0.083276 0.0835312 0.083764 0.0842026
0.0844157 0.0846215 0.0848206 0.0850156 0.0850618 0.0851106 0.0851625 0.085224 0.0852863 0.0855922
0.0857406 0.0858794 0.0860098 0.0861304 0.0863035 0.0864121 0.0865183 0.0866222 0.0867267 0.0867747
0.0868247 0.0868779 0.0869358 0.0869987 0.0871847 0.0873104 0.087429 0.0875414 0.0876344 0.0877189
0.0877827 0.0878462 0.0879094 0.0879732 0.0880228 0.0880757 0.0881405 0.088227 0.0883027 0.0884415
0.0885388 0.0886226 0.088703 0.08878 0.0888771 0.0889518 0.0890237 0.089087 0.0891415 0.0891615
0.0891791 0.0891954 0.0892117 0.0892288 0.0892798 0.0893343 0.0894001 0.0894861 0.0895643 0.0896554
0.0897218 0.089781 0.0898345 0.0898841 0.089901 0.0899162 0.0899301 0.089944 0.0899589 0.0900105
0.0900653 0.0901253 0.0901916 0.0902653 0.0903537 0.0904237 0.0904923 0.0905549 0.0906111 0.0906673
0.0907129 0.0907554 0.0907952 0.0908356 0.0908423 0.090849 0.0908556 0.0908623 0.090869 0.0909207
0.0909746 0.0910342 0.0911008 0.0911759 0.0912512 0.0913123 0.0913716 0.0914255 0.0914747 0.0915003
0.0915228 0.0915443 0.0915658 0.0915881 0.091613 0.0916379 0.0916628 0.0916877 0.0917125 0.0917643
0.0918163 0.091871 0.0919319 0.092 0.092068 0.0921263 0.0921821 0.0922341 0.0922825 0.0923102