# vtk DataFile Version 2.0
tracks
ASCII
DATASET POLYDATA
POINTS 11290 float
-1.001 1e-07 0.0011 -1.0008 9.94984e-08 0.0011 -1.0006 9.89968e-08 0.00110001 -1.0004 9.84952e-08
0.00110001 -1.0002 9.79936e-08 0.00110001 -1 9.7492e-08 0.00110001 -0.99375 8.18123e-08 0.0011001
-0.9875 6.19622e-08 0.00110019 -0.98125 4.20983e-08 0.00110029 -0.975 2.22208e-08 0.00110038 -0.96875
2.32956e-09 0.00110048 -0.968604 1.86365e-09 0.00110048 -0.968457 1.39776e-09 0.00110048 -0.968311 9.31861e-10
0.00110048 -0.968165 4.65956e-10 0.00110049 -0.968019 9.68739e-28 0.00110049 -0.961915 -1.94406e-08 0.00110058
-0.955811 -3.8893e-08 0.00110068 -0.949707 -5.83573e-08 0.00110077 -0.943604 -7.78333e-08 0.00110086 -0.9375
-9.73212e-08 0.00110096 -0.93125 -1.17221e-07 0.00110107 -0.925 -1.27466e-07 0.0011012 -0.91875 -1.37718e-07
0.00110132 -0.9125 -1.47977e-07 0.00110145 -0.90625 -1.58242e-07 0.00110157 -0.9 -1.68429e-07 0.0011017
-0.89375 -1.78709e-07 0.00110183 -0.8875 -1.88996e-07 0.00110195 -0.88125 -1.9929e-07 0.00110208 -0.875
-2.0959e-07 0.00110221 -0.86875 -2.03443e-07 0.00110234 -0.8625 -1.78831e-07 0.00110248 -0.85625 -1.54202e-07
0.00110262 -0.85 -1.29555e-07 0.00110276 -0.84375 -1.04891e-07 0.0011029 -0.838451 -8.39129e-08 0.00110302
-0.833151 -6.29731e-08 0.00110314 -0.827852 -4.20208e-08 0.00110325 -0.822552 -2.10562e-08 0.00110337 -0.817233
2.82307e-20 0.00110349 -0.816286 3.74921e-09 0.00110351 -0.81534 7.49885e-09 0.00110353 -0.814393 1.12489e-08
0.00110355 -0.813447 1.49995e-08 0.00110357 -0.8125 1.90938e-08 0.0011036 -0.80625 5.98013e-08 0.00110373
-0.8 1.11348e-07 0.00110385 -0.79375 1.62936e-07 0.00110398 -0.7875 2.14565e-07 0.0011041 -0.78125
2.66235e-07 0.00110422 -0.775 3.17764e-07 0.00110435 -0.76875 3.69534e-07 0.00110447 -0.7625 4.21348e-07
0.00110459 -0.75625 4.73207e-07 0.00110472 -0.75 5.25109e-07 0.00110484 -0.74375 5.81189e-07 0.00110495
-0.7375 6.3744e-07 0.00110503 -0.73125 6.93738e-07 0.00110512 -0.725 7.50083e-07 0.0011052 -0.71875
8.06476e-07 0.00110529 -0.7125 8.623e-07 0.00110537 -0.70625 9.18802e-07 0.00110545 -0.7 9.75353e-07
0.00110554 -0.69375 1.03195e-06 0.00110562 -0.6875 1.0886e-06 0.0011057 -0.68125 1.14877e-06 0.00110574
-0.675 1.21856e-06 0.00110572 -0.66875 1.28842e-06 0.0011057 -0.6625 1.35832e-06 0.00110568 -0.65625
1.42829e-06 0.00110566 -0.65 1.49713e-06 0.00110564 -0.64375 1.56735e-06 0.00110563 -0.6375 1.63763e-06
0.00110561 -0.63125 1.70798e-06 0.00110559 -0.625 1.77839e-06 0.00110557 -0.61875 1.85684e-06 0.00110548
-0.6125 1.93361e-06 0.00110531 -0.60625 2.01044e-06 0.00110514 -0.6 2.08734e-06 0.00110498 -0.59375
2.1643e-06 0.00110481 -0.5875 2.23915e-06 0.00110464 -0.58125 2.31645e-06 0.00110448 -0.575 2.39383e-06
0.00110431 -0.56875 2.47128e-06 0.00110414 -0.5625 2.5488e-06 0.00110397 -0.55625 2.61917e-06 0.00110371
-0.55 2.68811e-06 0.00110332 -0.54375 2.75713e-06 0.00110293 -0.5375 2.82621e-06 0.00110254 -0.53125
2.89535e-06 0.00110215 -0.525 2.96083e-06 0.00110176 -0.51875 3.0309e-06 0.00110137 -0.5125 3.10105e-06
0.00110098 -0.50625 3.17129e-06 0.00110059 -0.5 3.24162e-06 0.00110019 -0.49375 3.31158e-06 0.00109961
-0.4875 3.38248e-06 0.00109876 -0.48125 3.45346e-06 0.0010979 -0.475 3.52453e-06 0.00109704 -0.46875
3.59568e-06 0.00109619 -0.4625 3.66011e-06 0.00109534 -0.45625 3.73311e-06 0.00109448 -0.45 3.80624e-06
0.00109363 -0.44375 3.87948e-06 0.00109277 -0.4375 3.95283e-06 0.00109192 -0.431249 4.0332e-06 0.00109068
-0.424999 4.12705e-06 0.00108886 -0.418749 4.22102e-06 0.00108704 -0.412499 4.31511e-06 0.00108523 -0.406249
4.40932e-06 0.00108342 -0.399998 4.49051e-06 0.00108161 -0.393747 4.58908e-06 0.0010798 -0.387496 4.6878e-06
0.00107799 -0.381246 4.78667e-06 0.00107619 -0.374995 4.88569e-06 0.00107439 -0.368743 4.99445e-06 0.00107173
-0.36249 5.1017e-06 0.0010677 -0.356238 5.20878e-06 0.00106369 -0.349986 5.31571e-06 0.00105969 -0.343734
5.42249e-06 0.00105571 -0.337478 5.50358e-06 0.00105173 -0.331222 5.61785e-06 0.00104777 -0.324967 5.73132e-06
0.00104382 -0.318711 5.84398e-06 0.00103989 -0.312455 5.95585e-06 0.00103597 -0.306193 6.06149e-06 0.00102997
-0.299931 6.16723e-06 0.0010209 -0.293669 6.2701e-06 0.00101191 -0.287406 6.37009e-06 0.00100299 -0.281144
6.46717e-06 0.000994156 -0.274873 6.53012e-06 0.000985383 -0.268603 6.63065e-06 0.000976679 -0.262332 6.72494e-06
0.000968053 -0.256061 6.81293e-06 0.000959505 -0.24979 6.89453e-06 0.000951034 -0.248249 6.90992e-06 0.000947864
-0.246708 6.94846e-06 0.000943195 -0.245167 7.00221e-06 0.000938582 -0.243626 7.05503e-06 0.000933991 -0.240551
7.15857e-06 0.000924874 -0.236127 7.30211e-06 0.000911887 -0.231703 7.43782e-06 0.000899086 -0.227279 7.56561e-06
0.000886468 -0.222855 7.68539e-06 0.00087403 -0.218431 7.79709e-06 0.000861769 -0.215291 7.86455e-06 0.000853185
-0.21215 7.88689e-06 0.000842948 -0.20901 7.88987e-06 0.000832831 -0.20587 7.87307e-06 0.000822834 -0.202729
7.83609e-06 0.000812954 -0.19959 7.92014e-06 0.00080322 -0.196451 7.84238e-06 0.000793567 -0.193312 7.7435e-06
0.000784026 -0.190174 7.62303e-06 0.000774596 -0.187035 7.48053e-06 0.000765275 -0.183908 7.37502e-06 0.000753811
-0.180782 7.24012e-06 0.000739481 -0.177656 7.11605e-06 0.000725426 -0.17453 7.00312e-06 0.000711639 -0.171404
6.90161e-06 0.000698117 -0.16985 6.9632e-06 0.000691523 -0.168296 6.92809e-06 0.00068498 -0.166743 6.91513e-06
0.000678502 -0.165189 6.92461e-06 0.000672089 -0.16341 6.96152e-06 0.000664818 -0.1619 7.01848e-06 0.000658719
-0.160391 7.09794e-06 0.000652673 -0.158881 7.20019e-06 0.00064668 -0.157371 7.32555e-06 0.000640741 -0.155862
7.47431e-06 0.000634853 -0.152748 7.89892e-06 0.000618321 -0.149635 8.57573e-06 0.000597753 -0.146522 9.33694e-06
0.000577905 -0.143409 1.01856e-05 0.000558753 -0.140295 1.11248e-05 0.000540273 -0.137177 1.13594e-05 0.00052219
-0.13406 1.25648e-05 0.000504699 -0.130942 1.38022e-05 0.000487797 -0.127824 1.50732e-05 0.000471463 -0.124706
1.63795e-05 0.000455678 -0.121536 1.80055e-05 0.000437553 -0.118367 1.93432e-05 0.000435969 -0.115197 2.03872e-05
0.000434732 -0.112028 2.11213e-05 0.000433863 -0.108848 2.15296e-05 0.000433379 -0.108795 2.15296e-05 0.000433379
-0.108742 2.1531e-05 0.000433378 -0.108689 2.1532e-05 0.000433377 -0.108636 2.15327e-05 0.000433377 -0.108582
2.1533e-05 0.000433376 -0.105424 2.1533e-05 0.000433376 -0.102267 2.04249e-05 0.000432418 -0.0991098 1.8115e-05
0.00043042 -0.0959525 1.45022e-05 0.000427295 -0.0927939 9.47483e-06 0.000422947 -0.0897785 9.47483e-06 0.000422947
-0.0867633 -3.68299e-06 0.000415863 -0.083748 -2.33056e-05 0.000405298 -0.0807329 -5.19954e-05 0.000389852 -0.0775765
-9.58196e-05 0.000366259 -1.001 1e-07 0.0537316 -1.00081 8e-08 0.0537317 -1.00061 5.99791e-08
0.0537318 -1.00042 3.99374e-08 0.053732 -1.00022 1.98748e-08 0.0537321 -1.00003 3.04525e-28 0.0537322
-1.00003 -6.67925e-10 0.0537322 -1.00002 -1.33587e-09 0.0537322 -1.00001 -2.00384e-09 0.0537322 -1.00001
-2.67184e-09 0.0537322 -1 -3.33985e-09 0.0537322 -0.99375 -6.51273e-07 0.0537363 -0.9875 -1.32429e-06
0.0537404 -0.98125 -2.01825e-06 0.0537447 -0.975 -2.73039e-06 0.0537493 -0.96875 -3.46072e-06 0.0537542
-0.9625 -4.20842e-06 0.0537593 -0.95625 -4.93057e-06 0.0537646 -0.95 -5.62649e-06 0.0537702 -0.94375
-6.29615e-06 0.053776 -0.9375 -6.95006e-06 0.0537819 -0.93125 -7.60277e-06 0.053788 -0.925 -8.20088e-06
0.0537941 -0.91875 -8.72475e-06 0.0538003 -0.9125 -9.16255e-06 0.0538066 -0.90625 -9.51416e-06 0.0538129
-0.9 -9.77794e-06 0.0538193 -0.89375 -9.92822e-06 0.0538256 -0.8875 -9.96314e-06 0.0538319 -0.88125
-9.88253e-06 0.0538381 -0.875 -9.6936e-06 0.0538443 -0.86875 -9.4062e-06 0.0538506 -0.8625 -9.01137e-06
0.0538569 -0.85625 -8.51017e-06 0.0538631 -0.85 -7.90424e-06 0.0538692 -0.84375 -7.19343e-06 0.0538751
-0.8375 -6.37675e-06 0.0538809 -0.83125 -5.48857e-06 0.0538865 -0.825 -4.52795e-06 0.0538919 -0.81875
-3.49477e-06 0.0538971 -0.8125 -2.38046e-06 0.0539021 -0.81004 -1.90437e-06 0.0539041 -0.807581 -1.41832e-06
0.0539061 -0.805121 -9.22174e-07 0.053908 -0.802662 -4.15924e-07 0.05391 -0.800672 1.08446e-18 0.0539115
-0.796788 8.19659e-07 0.0539145 -0.792903 1.65404e-06 0.0539174 -0.789019 2.50316e-06 0.0539202 -0.785134
3.36703e-06 0.053923 -0.78125 4.24568e-06 0.0539256 -0.775 5.6828e-06 0.0539296 -0.76875 7.12718e-06
0.0539334 -0.7625 8.57826e-06 0.0539369 -0.75625 1.00361e-05 0.0539401 -0.75 1.15081e-05 0.053943
-0.74375 1.30061e-05 0.0539459 -0.7375 1.45071e-05 0.0539486 -0.73125 1.60072e-05 0.053951 -0.725
1.75048e-05 0.0539531 -0.71875 1.89998e-05 0.0539547 -0.7125 2.0491e-05 0.053956 -0.70625 2.20103e-05
0.0539567 -0.7 2.35566e-05 0.053957 -0.69375 2.51298e-05 0.0539568 -0.6875 2.67289e-05 0.0539561
-0.68125 2.83518e-05 0.0539552 -0.675 3.00344e-05 0.0539539 -0.66875 3.17737e-05 0.0539522 -0.6625
3.35687e-05 0.0539499 -0.65625 3.54197e-05 0.0539469 -0.65 3.7327e-05 0.0539434 -0.64375 3.9282e-05
0.0539393 -0.6375 4.12812e-05 0.0539344 -0.63125 4.33249e-05 0.0539289 -0.625 4.5416e-05 0.0539229
-0.61875 4.75601e-05 0.0539164 -0.6125 4.96986e-05 0.0539094 -0.60625 5.18296e-05 0.0539018 -0.6
5.39538e-05 0.0538932 -0.59375 5.60712e-05 0.0538839 -0.5875 5.81848e-05 0.0538737 -0.58125 6.02699e-05
0.0538624 -0.575 6.23226e-05 0.05385 -0.56875 6.4343e-05 0.0538365 -0.5625 6.6328e-05 0.0538221
-0.55625 6.82809e-05 0.053807 -0.55 7.0235e-05 0.0537912 -0.54375 7.21784e-05 0.0537741 -0.5375
7.41092e-05 0.0537555 -0.53125 7.60273e-05 0.0537353 -0.525 7.79425e-05 0.0537136 -0.51875 7.9869e-05
0.0536897 -0.5125 8.17929e-05 0.0536636 -0.50625 8.37142e-05 0.0536353 -0.5 8.56348e-05 0.0536053
-0.49375 8.75659e-05 0.053574 -0.4875 8.95231e-05 0.053541 -0.48125 9.14878e-05 0.0535055 -0.475
9.3461e-05 0.0534668 -0.46875 9.54428e-05 0.0534249 -0.4625 9.74578e-05 0.0533798 -0.456249 9.95354e-05
0.05333 -0.449999 0.000101651 0.0532755 -0.443749 0.000103805 0.0532162 -0.437499 0.000106002 0.0531532
-0.431248 0.000108275 0.0530878 -0.424998 0.000110691 0.0530186 -0.418747 0.000113175 0.0529441 -0.412497
0.000115714 0.0528625 -0.406245 0.000118308 0.0527737 -0.399993 0.000121023 0.0526778 -0.393742 0.000123829
[...]
POINT_DATA 11290
FIELD attributes 3
age 1 11290 float
0 1.00097e-05 2.00194e-05 3.00291e-05 4.00388e-05 5.00485e-05 0.000362852 0.000675671 0.000988491 0.00130131 0.00161413
0.00162145 0.00162877 0.0016361 0.00164342 0.00165074 0.00195624 0.00226174 0.00256723 0.00287273 0.00317823
0.00349107 0.00380393 0.00411679 0.00442965 0.00474251 0.00505538 0.00536824 0.0056811 0.00599396 0.00630682
0.00661971 0.00693262 0.00724554 0.00755845 0.00787137 0.00813669 0.00840201 0.00866733 0.00893265 0.00919898
0.00924637 0.00929376 0.00934116 0.00938855 0.00943594 0.00974889 0.0100619 0.0103748 0.0106878 0.0110008
0.0113138 0.0116267 0.0119397 0.0122527 0.0125656 0.0128787 0.0131917 0.0135048 0.0138178 0.0141309
0.0144439 0.014757 0.01507 0.0153831 0.0156961 0.0160092 0.0163223 0.0166354 0.0169485 0.0172616
0.0175748 0.0178879 0.018201 0.0185141 0.0188272 0.0191404 0.0194536 0.0197668 0.02008 0.0203932
0.0207064 0.0210196 0.0213328 0.021646 0.0219591 0.0222724 0.0225857 0.022899 0.0232123 0.0235255
0.0238388 0.0241521 0.0244654 0.0247787 0.025092 0.0254053 0.0257187 0.0260321 0.0263456 0.026659
0.0269724 0.0272858 0.0275992 0.0279126 0.028226 0.0285395 0.0288531 0.0291667 0.0294802 0.0297938
0.0301074 0.030421 0.0307346 0.0310482 0.0313618 0.0316755 0.0319894 0.0323032 0.0326171 0.032931
0.033245 0.033559 0.0338731 0.0341871 0.0345011 0.0348155 0.0351301 0.0354447 0.0357592 0.0360738
0.0363887 0.0367037 0.0370186 0.0373336 0.0376485 0.0377259 0.0378035 0.0378813 0.037959 0.0381142
0.0383374 0.0385606 0.0387838 0.0390069 0.03923 0.0393883 0.0395467 0.0397051 0.0398635 0.0400218
0.0401801 0.0403383 0.0404965 0.0406547 0.0408129 0.0409705 0.0411281 0.0412856 0.0414432 0.0416007
0.0416789 0.0417572 0.0418354 0.0419137 0.0420033 0.0420793 0.0421553 0.0422313 0.0423073 0.0423833
0.0425401 0.0426969 0.0428538 0.0430106 0.0431673 0.0433243 0.0434812 0.0436381 0.043795 0.0439518
0.0441113 0.0442735 0.0444357 0.0445979 0.0447606 0.0447633 0.0447661 0.0447688 0.0447715 0.0447743
0.0449359 0.0450975 0.0452591 0.0454206 0.0455821 0.0457376 0.0459078 0.0460957 0.0463054 0.0465533
0 9.97882e-06 1.99585e-05 2.9939e-05 3.99203e-05 4.97987e-05 5.01304e-05 5.0462e-05 5.07937e-05 5.11254e-05
5.1457e-05 0.000373146 0.000694933 0.00101684 0.00133888 0.00166104 0.00198334 0.00230576 0.0026283 0.00295095
0.00327373 0.00359662 0.00391964 0.0042428 0.00456609 0.00488953 0.0052131 0.00553683 0.00586071 0.00618475
0.00650895 0.00683331 0.00715783 0.00748252 0.00780736 0.00813237 0.00845753 0.00878286 0.00910834 0.00943398
0.00975978 0.00988806 0.0100164 0.0101447 0.0102731 0.0103769 0.0105797 0.0107826 0.0109856 0.0111886
0.0113917 0.0117185 0.0120456 0.0123729 0.0127004 0.0130281 0.013356 0.0136842 0.0140126 0.0143412
0.0146701 0.0149991 0.0153283 0.0156577 0.0159873 0.016317 0.016647 0.0169772 0.0173075 0.0176381
0.0179688 0.0182997 0.0186308 0.0189622 0.0192937 0.0196255 0.0199575 0.0202898 0.0206223 0.0209552
0.0212882 0.0216216 0.0219552 0.0222892 0.0226234 0.0229578 0.0232926 0.0236277 0.0239631 0.0242988
0.0246348 0.0249712 0.0253079 0.025645 0.0259826 0.0263205 0.0266589 0.0269977 0.0273369 0.0276767
0.0280169 0.0283577 0.028699 0.0290408 0.0293833 0.0297262 0.0300697 0.0304138 0.0307584 0.0311037
0.0314498 0.0317966 0.0321443 0.0324929 0.0328423 0.0331927 0.0335438 0.0338959 0.0342489 0.0346031
0.0349586 0.0353156 0.035674 0.0360338 0.036395 0.0367577 0.0371217 0.0374866 0.0378524 0.03822
0.0385903 0.0389644 0.0393401 0.0397174 0.0400963 0.0404795 0.0406713 0.0408636 0.0410564 0.0412496
0.0414444 0.0416392 0.041834 0.0420289 0.042224 0.0424203 0.0426164 0.0428129 0.0430099 0.0432069
0.0434065 0.0436035 0.0438005 0.0439974 0.0441942 0.0443938 0.0444764 0.0445629 0.0446481 0.044732
0.0448156 0.0449295 0.0450434 0.0451574 0.0452713 0.0453861 0.0455759 0.0457658 0.0459556 0.0461455
0.0463374 0.0465469 0.0467562 0.0469656 0.0471913 0.047447 0.047701 0.0479556 0.0482128 0.0484543
0.0486903 0.0488073 0.0489162 0.0490278 0.0491423 0.0492446 0.0494731 0.049728 0.0500296 0.0504096
0.0508428 0.051364 0.0518087 0.0522664 0.0527691 0.0537614 0.054023 0.0542969 0.0545456 0.054789
0.0579502 0 6.77825e-06 1.35566e-05 2.03349e-05 2.71133e-05 3.38782e-05 3.74223e-05 4.09664e-05 4.45105e-05
4.80546e-05 5.15988e-05 0.000374101 0.000696723 0.00101947 0.00134233 0.00166534 0.00198848 0.00231174 0.00263512
0.00295861 0.00328223 0.00360597 0.00392984 0.00425384 0.00457797 0.00490221 0.00522658 0.00555108 0.00587573
0.00620053 0.00652547 0.00685057 0.00717581 0.0075012 0.00782674 0.00815243 0.00847827 0.00880425 0.00913037
0.00945663 0.00978305 0.0100538 0.0103246 0.0105955 0.0108666 0.0111016 0.0111648 0.011228 0.0112912
0.0113544 0.0114176 0.011745 0.0120726 0.0124003 0.0127283 0.0130564 0.0133847 0.0137133 0.014042
0.0143709 0.0147 0.0150293 0.0153588 0.0156885 0.0160183 0.0163483 0.0166785 0.0170089 0.0173394
0.0176702 0.0180011 0.0183322 0.0186635 0.0189951 0.0193269 0.0196589 0.0199912 0.0203237 0.0206565
0.0209895 0.0213229 0.0216565 0.0219905 0.0223248 0.0226594 0.0229943 0.0233295 0.023665 0.0240009
0.0243371 0.0246738 0.0250108 0.0253484 0.0256865 0.026025 0.0263641 0.0267035 0.0270436 0.0273842
0.0277254 0.0280672 0.0284098 0.0287532 0.0290974 0.0294424 0.0297881 0.0301345 0.0304818 0.03083
0.0311791 0.0315295 0.0318812 0.0322346 0.0325896 0.0329458 0.0333036 0.033663 0.0340241 0.0343869
0.0347513 0.0351185 0.0354886 0.0358626 0.0362389 0.0366172 0.0369996 0.0373835 0.0377709 0.0381617
0.0385559 0.0389596 0.0390277 0.0390959 0.0391643 0.0392327 0.0392894 0.039429 0.0395691 0.0397097
0.0398508 0.0399943 0.0402067 0.0404208 0.0406363 0.0408533 0.0410798 0.0411122 0.0411446 0.0411771
0.0412095 0.0412416 0.0414324 0.0416236 0.041815 0.0420068 0.0422078 0.0423291 0.0424609 0.0425951
0.0427251 0.0428497 0.0429605 0.0430713 0.0431822 0.0432932 0.043408 0.0436544 0.0439501 0.0443233
0.0447331 0.045068 0.0452247 0.0453857 0.0455542 0.0457307 0.0459098 0.0461599 0.0464547 0.0468264
0.0473307 0.047765 0.0485374 0.0493797 0.0503839 0.0515802 0.0531266 0.0533639 0.0536146 0.0538797
0.0541602 0.0544758 0.0553087 0.0557757 0.056294 0.0568942 0.0599651 0 7.3432e-06 1.46865e-05
2.20298e-05 2.93732e-05 3.67112e-05 3.9705e-05 4.26989e-05 4.56929e-05 4.86868e-05 5.16807e-05 0.000374698 0.000697821
0.00102105 0.00134438 0.00166782 0.00199138 0.00231503 0.0026388 0.00296266 0.00328663 0.00361071 0.00393489
0.0042592 0.00458361 0.00490814 0.00523279 0.00555757 0.00588249 0.00620755 0.00653274 0.00685807 0.00718355
0.00750916 0.00783493 0.00816083 0.00848688 0.00881307 0.00913941 0.0094659 0.00979252 0.0101193 0.0104462
0.0107733 0.0111006 0.011428 0.0114899 0.0115517 0.0116136 0.0116754 0.0117369 0.0120028 0.012269
0.0125352 0.0128016 0.0130681 0.0133966 0.0137254 0.0140543 0.0143834 0.0147128 0.0150423 0.015372
0.0157019 0.016032 0.0163623 0.0166928 0.0170235 0.0173543 0.0176854 0.0180167 0.0183481 0.0186799
0.0190119 0.0193441 0.0196766 0.0200093 0.0203424 0.0206757 0.0210094 0.0213434 0.0216777 0.0220123
0.0223474 0.0226828 0.0230186 0.0233547 0.0236913 0.0240284 0.0243659 0.0247038 0.0250423 0.0253813
0.025721 0.0260613 0.0264023 0.0267438 0.0270862 0.0274293 0.0277733 0.0281181 0.0284637 0.0288106
0.0291585 0.0295074 0.0298576 0.030209 0.0305619 0.0309164 0.0312725 0.0316305 0.031702 0.0317736
0.0318453 0.0319171 0.031975 0.0322681 0.0325626 0.0328587 0.0331564 0.0334561 0.0338294 0.0342062
0.0345868 0.034971 0.0353607 0.0357553 0.0361553 0.0365622 0.0369762 0.0374034 0.0375858 0.0377696
0.0379549 0.0381418 0.03828 0.0383288 0.0383777 0.0384268 0.038476 0.0385257 0.0387597 0.0389989
0.0392416 0.039487 0.0397474 0.0397741 0.0398007 0.0398275 0.0398542 0.0398783 0.0401039 0.0403334
0.0405665 0.0408029 0.0410699 0.0413421 0.0416159 0.0418909 0.0421664 0.042488 0.0425405 0.0425926
0.0426458 0.0427001 0.0427525 0.0431267 0.0435494 0.0440433 0.044666 0.0455179 0.0458016 0.0460965
0.0464017 0.046715 0.0470859 0.0477098 0.0480963 0.0484142 0.0487781 0.0512791 0 7.06238e-06
1.41248e-05 2.11873e-05 2.82498e-05 3.53104e-05 3.85897e-05 4.18691e-05 4.51484e-05 4.84278e-05 5.17072e-05 0.000374886
0.000698174 0.00102157 0.00134508 0.00166869 0.00199244 0.00231629 0.00264025 0.00296431 0.00328848 0.00361276
0.00393715 0.00426165 0.00458627 0.004911 0.00523585 0.00556084 0.00588596 0.00621121 0.0065366 0.00686213
0.0071878 0.00751361 0.00783955 0.00816565 0.00849188 0.00881826 0.00914478 0.00947145 0.00979827 0.0101252
0.0104524 0.0107796 0.0111071 0.0114347 0.0117625 0.0120905 0.0124187 0.0127471 0.0130757 0.0131619
0.0132482 0.0133345 0.0134208 0.0134958 0.0137408 0.0139859 0.014231 0.0144763 0.0147217 0.0150515
0.0153815 0.0157117 0.0160421 0.0163727 0.0167035 0.0170345 0.0173657 0.0176972 0.0180289 0.0183608
0.0186929 0.0190254 0.0193581 0.0196911 0.0200244 0.020358 0.020692 0.0210264 0.0213611 0.0216961
0.0220316 0.0223674 0.0227038 0.0230405 0.0233777 0.0237154 0.0240537 0.0243925 0.024732 0.0250719
0.0254125 0.0257539 0.0260961 0.026439 0.0267828 0.0271276 0.0274735 0.0278205 0.0281685 0.0285176
0.028868 0.0292199 0.0295734 0.0299285 0.0302854 0.0306447 0.0310064 0.0313705 0.0317371 0.0321061
0.0324782 0.0328537 0.0332331 0.033617 0.0340049 0.0344004 0.0348038 0.0352154 0.0356372 0.0358526
0.0360708 0.0362919 0.0365159 0.0367446 0.0368186 0.0368931 0.0369682 0.0370437 0.0370994 0.0372674
0.037438 0.0376111 0.0377867 0.037968 0.0380206 0.0380735 0.0381268 0.0381804 0.0382069 0.0384274
0.0386538 0.0388864 0.0391252 0.039383 0.0396979 0.0400272 0.0403707 0.0407277 0.0411569 0.041289
0.0414225 0.0415644 0.0417156 0.0418471 0.04227 0.0427551 0.0433427 0.0440571 0.0464933 0
7.63238e-06 1.52648e-05 2.28973e-05 3.05299e-05 3.81618e-05 4.08721e-05 4.35824e-05 4.62927e-05 4.90031e-05 5.17134e-05
0.000374932 0.000698252 0.00102167 0.00134522 0.00166889 0.0019927 0.00231661 0.00264062 0.00296474 0.00328896
0.00361328 0.00393772 0.00426228 0.00458696 0.00491174 0.00523664 0.00556168 0.00588685 0.00621217 0.00653762
0.00686322 0.00718896 0.00751486 0.0078409 0.00816708 0.00849341 0.00881989 0.00914652 0.0094733 0.00980024
0.0101273 0.0104546 0.010782 0.0111097 0.0114374 0.0115727 0.0117081 0.0118434 0.0119788 0.0120992
0.0122951 0.0124911 0.0126872 0.0128833 0.0130795 0.0134085 0.0137377 0.0140671 0.0143967 0.0147265
0.0150566 0.0153868 0.0157173 0.0160479 0.0163788 0.0167099 0.0170412 0.0173728 0.0177046 0.0180367
0.018369 0.0187015 0.0190344 0.0193676 0.0197011 0.0200349 0.020369 0.0207036 0.0210385 0.0213738
0.0217095 0.0220456 0.0223822 0.0227192 0.0230567 0.0233947 0.0237334 0.0240726 0.0244125 0.024753
0.0250941 0.025436 0.0257788 0.0261225 0.026467 0.0268125 0.0271592 0.0275072 0.0278564 0.0282068
0.0285586 0.0289122 0.0292675 0.0296247 0.0299839 0.0303457 0.0307104 0.0310781 0.0314488 0.0318225
0.0322005 0.0325832 0.0329706 0.0333628 0.0337606 0.0338657 0.0339715 0.0340781 0.0341855 0.0342581
0.0345774 0.034904 0.035239 0.035583 0.0359346 0.0361729 0.0364172 0.0366677 0.0369249 0.0371893
0.0374607 0.0377439 0.03804 0.0383505 0.0386782 0.0390137 0.0394007 0.0398579 0.040357 0.0408856
0.0412505 0.0416894 0.0422512 0.0430031 0.0446178 0.0450214 0.0455079 0.0461119 0.0468815 0.0485935
0 8.90711e-06 1.78143e-05 2.67215e-05 3.56289e-05 4.45555e-05 4.59864e-05 4.74174e-05 4.88484e-05 5.02793e-05
5.17103e-05 0.000374909 0.000698215 0.00102164 0.00134519 0.00166886 0.00199266 0.00231656 0.00264057 0.00296468
0.0032889 0.00361323 0.00393768 0.00426225 0.00458694 0.00491176 0.0052367 0.00556178 0.00588701 0.00621238
0.00653789 0.00686354 0.00718935 0.00751531 0.00784142 0.00816768 0.00844202 0.00871648 0.00899104 0.00926572
0.00953934 0.00959175 0.00964416 0.00969658 0.009749 0.00980143 0.0101286 0.010456 0.0107836 0.0111113
0.0114393 0.0117674 0.0120957 0.0124242 0.0127529 0.0130818 0.013411 0.0137403 0.0140699 0.0143997
0.0147297 0.01506 0.0153904 0.0157211 0.016052 0.0163831 0.0167144 0.017046 0.0173778 0.0177099
0.0180422 0.0183747 0.0187076 0.0190408 0.0193742 0.019708 0.0200421 0.0203766 0.0207115 0.0210468
0.0213824 0.0217185 0.022055 0.0223921 0.0227296 0.0230676 0.0234061 0.0237452 0.0240849 0.0244253
0.0247663 0.025108 0.0254506 0.0257941 0.0261385 0.0264837 0.02683 0.0271774 0.0275262 0.0278762
0.0282275 0.0285803 0.0289351 0.0292918 0.0296505 0.0300111 0.0303745 0.0307408 0.0311101 0.0314827
0.0318584 0.0322394 0.0326254 0.0330168 0.0334135 0.0338158 0.0339198 0.0340244 0.0341297 0.0342358
0.0343129 0.034639 0.0349729 0.0353146 0.0356645 0.036023 0.0362693 0.0365223 0.0367831 0.0370529
0.0373322 0.037629 0.0379414 0.0382709 0.0386195 0.0389889 0.0394387 0.0399805 0.0406804 0.0416657
0.0434284 0 1.01773e-05 2.03548e-05 3.05323e-05 4.071e-05 5.09557e-05 5.11085e-05 5.12614e-05 5.14142e-05
5.15671e-05 5.17199e-05 0.000374979 0.000698343 0.00102183 0.00134544 0.00166918 0.00199304 0.00231701 0.00264108
0.00296525 0.00328952 0.00361389 0.00393839 0.00426301 0.00458774 0.00491259 0.00523756 0.00556268 0.00588794
0.00621335 0.00653891 0.00686461 0.00719046 0.00751647 0.00784264 0.00816896 0.00826808 0.00836722 0.00846638
0.00856555 0.00866084 0.00888913 0.00911751 0.00934596 0.00957449 0.0098031 0.0101304 0.0104578 0.0107855
0.0111133 0.0114413 0.0117695 0.0120979 0.0124265 0.0127553 0.0130843 0.0134136 0.013743 0.0140727
0.0144026 0.0147327 0.015063 0.0153935 0.0157243 0.0160553 0.0163865 0.0167179 0.0170496 0.0173815
0.0177136 0.018046 0.0183787 0.0187116 0.0190449 0.0193784 0.0197123 0.0200465 0.0203811 0.020716
0.0210514 0.0213871 0.0217232 0.0220598 0.0223968 0.0227343 0.0230723 0.0234107 0.0237498 0.0240895
0.0244297 0.0247706 0.0251122 0.0254545 0.0257977 0.0261417 0.0264865 0.0268323 0.0271793 0.0275274
0.0278766 0.0282271 0.0285788 0.0289322 0.0292873 0.0296441 0.0300027 0.0303634 0.0307269 0.031093
0.0314617 0.0318332 0.0322081 0.0325871 0.0329702 0.0333577 0.0337497 0.0341472 0.0345549 0.0349714
0.0353971 0.0358333 0.0358669 0.0359005 0.0359343 0.0359681 0.0359951 0.0361896 0.0363873 0.0365882
0.0367925 0.0370015 0.0370938 0.0371871 0.0372815 0.037377 0.0374356 0.037609 0.0377861 0.037967
0.0381518 0.0383443 0.0386418 0.038953 0.03928 0.0396237 0.0400209 0.0404481 0.0409696 0.0416608
0.0426187 0.0444654 0 1.03461e-05 2.06924e-05 3.10387e-05 4.13852e-05 5.17319e-05 5.23354e-05 5.29389e-05
5.35423e-05 5.41458e-05 5.47496e-05 0.000377483 0.000700318 0.00102325 0.0013463 0.00166948 0.00199338 0.00231739
0.0026415 0.00296572 0.00329005 0.00361448 0.00393902 0.00426369 0.00458849 0.0049134 0.00523844 0.00556363
0.00588895 0.00621442 0.00654003 0.00668184 0.00682367 0.00696554 0.00710743 0.00723029 0.00741824 0.00760624
0.00779429 0.00798239 0.00817054 0.00849706 0.00882375 0.00915059 0.00947759 0.00980475 0.0101321 0.0104596
0.0107873 0.0111151 0.0114432 0.0117714 0.0120999 0.0124285 0.0127574 0.0130864 0.0134157 0.0137452
0.0140749 0.0144048 0.0147349 0.0150653 0.0153958 0.0157266 0.0160575 0.0163887 0.0167201 0.0170518
0.0173837 0.0177158 0.0180482 0.0183807 0.0187136 0.0190468 0.0193803 0.019714 0.0200481 0.0203826
0.0207174 0.0210525 0.0213881 0.021724 0.0220603 0.022397 0.0227342 0.0230718 0.0234098 0.0237485
0.0240877 0.0244274 0.0247677 0.0251085 0.02545 0.0257922 0.0261351 0.0264788 0.0268233 0.0271688
0.0275154 0.0278629 0.0282113 0.0285607 0.0289114 0.0292633 0.0296165 0.0299713 0.0303277 0.0306863
0.031047 0.0314096 0.0317741 0.032141 0.0325106 0.0328828 0.0332577 0.0336363 0.0340199 0.0344097
0.0348059 0.0352082 0.0356172 0.0358257 0.0360361 0.0362486 0.0364632 0.036681 0.0368895 0.0371003
0.0373133 0.0375287 0.0376192 0.0376589 0.0376987 0.0377386 0.0377786 0.0378188 0.0380566 0.0383
0.0385484 0.0388003 0.0390631 0.0392378 0.0394153 0.0395957 0.0397787 0.0398483 0.0399679 0.0400885
0.0402102 0.0403329 0.0404632 0.0407841 0.0411114 0.0414523 0.0418184 0.0422516 0.0424284 0.042605
0.0427929 0.0429931 0.0431777 0.0437223 0.044334 0.0450678 0.0459423 0.0478553 0.0481656 0.0484931
0.0488366 0.0491933 0.0495943 0.050156 0.0505392 0.0508317 0.0511676 0.0534294 0 1.03473e-05
2.06947e-05 3.10422e-05 4.13898e-05 5.17375e-05 5.32622e-05 5.4787e-05 5.63117e-05 5.78364e-05 5.93632e-05 0.00038121
0.000703158 0.00102521 0.00134736 0.00166961 0.00199351 0.00231752 0.00264163 0.00296585 0.00329017 0.0036146
0.00393914 0.00426381 0.0045886 0.00491351 0.00523855 0.00556373 0.00588906 0.00621454 0.00654016 0.00657331
0.00660647 0.00663963 0.00667279 0.00670487 0.00699777 0.00729079 0.00758393 0.0078772 0.00817059 0.00849713
0.00882382 0.00915068 0.0094777 0.00980487 0.0101322 0.0104597 0.0107874 0.0111153 0.0114434 0.0117716
0.0121001 0.0124287 0.0127576 0.0130866 0.0134159 0.0137453 0.014075 0.0144049 0.0147349 0.0150652
0.0153957 0.0157264 0.0160573 0.0163884 0.0167196 0.0170512 0.0173829 0.0177149 0.0180471 0.0183795
0.0187123 0.0190453 0.0193785 0.0197121 0.0200459 0.0203801 0.0207147 0.0210495 0.0213848 0.0217203
0.0220562 0.0223925 0.0227292 0.0230663 0.0234039 0.0237418 0.0240803 0.0244193 0.0247587 0.0250986
0.0254391 0.0257802 0.0261219 0.0264642 0.0268072 0.027151 0.0274955 0.0278409 0.028187 0.0285339
0.0288816 0.0292303 0.02958 0.0299307 0.0302826 0.0306359 0.0309905 0.0313466 0.0317041 0.0320629
0.0324233 0.0327853 0.0331494 0.0335157 0.0338846 0.0342563 0.0346309 0.0350083 0.0353889 0.0357725
0.036159 0.0365486 0.036943 0.0373448 0.0374876 0.037631 0.0377751 0.0379197 0.0380175 0.0380908
0.0381642 0.0382377 0.0383114 0.0383855 0.0385993 0.0388146 0.0390316 0.0392501 0.0394738 0.0396976
0.0399237 0.0401522 0.040383 0.0406231 0.040742 0.0408611 0.0409806 0.0411003 0.0411849 0.041308
0.0414314 0.0415549 0.0416788 0.0418071 0.0419055 0.0420102 0.0421152 0.0422182 0.042312 0.0424551
0.0425983 0.0427416 0.042885 0.0430368 0.0432926 0.0435975 0.0439799 0.0443876 0.0447238 0.0448815
0.0450442 0.0452154 0.045396 0.0455807 0.0458435 0.0461558 0.0465536 0.0471043 0.0475249 0.0481928
0.048945 0.0498586 0.0509833 0.0530715 0.0532884 0.0535148 0.0537514 0.0539952 0.0542245 0.0550652
0.0554147 0.0558035 0.0562413 0.0595199 0 1.03437e-05 2.06875e-05 3.10315e-05 4.13755e-05 5.17197e-05
5.40767e-05 5.64338e-05 5.87909e-05 6.1148e-05 6.35108e-05 0.000384414 0.000705421 0.00102653 0.00134774 0.00166906
0.00199285 0.00231675 0.00264076 0.00296488 0.0032891 0.00361343 0.00393789 0.00426248 0.0045872 0.00491204
0.00522998 0.00554807 0.0058663 0.00618467 0.00620846 0.00627445 0.00634044 0.00640644 0.00647244 0.00653846
0.00686418 0.00719005 0.00751609 0.00784228 0.00816863 0.00849514 0.00882181 0.00914864 0.00947564 0.00980279
0.0101301 0.0104576 0.0107853 0.0111132 0.0114412 0.0117694 0.0120979 0.0124265 0.0127553 0.0130843
0.0134135 0.0137429 0.0140725 0.0144023 0.0147322 0.0150624 0.0153928 0.0157233 0.0160541 0.0163851
0.0167162 0.0170476 0.0173792 0.017711 0.0180431 0.0183754 0.0187079 0.0190408 0.0193739 0.0197072
0.0200409 0.0203748 0.0207091 0.0210437 0.0213786 0.0217138 0.0220494 0.0223854 0.0227217 0.0230583
0.0233953 0.0237327 0.0240706 0.0244088 0.0247475 0.0250866 0.0254262 0.0257663 0.026107 0.0264481
0.0267898 0.0271321 0.0274749 0.0278184 0.0281625 0.0285072 0.0288527 0.0291988 0.0295457 0.0298933
0.0302416 0.0305907 0.0309407 0.0312916 0.0316433 0.0319961 0.0323499 0.0327048 0.0330608 0.0331913
0.0332367 0.0332821 0.0333276 0.033373 0.0334185 0.033777 0.0341369 0.0344981 0.0348608 0.0352252
0.0355912 0.0359587 0.0363278 0.0366986 0.0370717 0.0374466 0.0378237 0.038203 0.0385845 0.0389705
0.0393558 0.0397447 0.0401372 0.0405314 0.0409332 0.0411313 0.0413296 0.0415282 0.041727 0.0419281
0.0421207 0.0423136 0.0425061 0.0426984 0.0428227 0.0428451 0.0428675 0.04289 0.0429124 0.0429348
0.0431374 0.0433396 0.0435413 0.0437426 0.0439493 0.0441546 0.044359 0.0445624 0.0447653 0.0449724
0.0450721 0.0451717 0.0452712 0.0453706 0.0454712 0.0455689 0.0456661 0.0457628 0.045859 0.0459547
0.0459751 0.0459953 0.0460156 0.0460358 0.0460559 0.0461275 0.0461987 0.0462697 0.0463405 0.0464104
0.0464553 0.0465001 0.0465446 0.0465888 0.0466315 0.0466735 0.0467151 0.0467561 0.0467964 0.0468354
0.0468731 0.0469102 0.0469467 0.0469828 0.0470191 0.0470368 0.0470544 0.0470719 0.0470893 0.0471023