# vtk DataFile Version 2.0
tracks
ASCII
DATASET POLYDATA
POINTS 10078 float
-1.001 1e-07 0.0011 -1.0008 9.95565e-08 0.0011 -1.0006 9.9113e-08 0.0011 -1.0004 9.86694e-08
0.0011 -1.0002 9.82259e-08 0.00110001 -1 9.77824e-08 0.00110001 -0.99375 8.39182e-08 0.00110006
-0.9875 6.5196e-08 0.00110012 -0.98125 4.64617e-08 0.00110018 -0.975 2.77151e-08 0.00110024 -0.96875
8.95622e-09 0.00110029 -0.968154 7.16497e-09 0.0011003 -0.967558 5.37406e-09 0.00110031 -0.966961 3.58306e-09
0.00110031 -0.966365 1.79196e-09 0.00110032 -0.965769 2.73497e-27 0.00110032 -0.960115 -1.69855e-08 0.00110038
-0.954461 -3.39802e-08 0.00110043 -0.948807 -5.09839e-08 0.00110048 -0.943154 -6.79968e-08 0.00110054 -0.9375
-8.50188e-08 0.00110059 -0.93125 -1.10339e-07 0.00110067 -0.925 -1.36728e-07 0.00110078 -0.91875 -1.63134e-07
0.00110088 -0.9125 -1.89556e-07 0.00110099 -0.90625 -2.15994e-07 0.0011011 -0.9 -2.42335e-07 0.0011012
-0.89375 -2.68811e-07 0.00110131 -0.8875 -2.95304e-07 0.00110141 -0.88125 -3.21813e-07 0.00110152 -0.875
-3.4834e-07 0.00110163 -0.86875 -3.69393e-07 0.00110175 -0.8625 -3.80204e-07 0.00110189 -0.85625 -3.91023e-07
0.00110203 -0.85 -4.01849e-07 0.00110217 -0.84375 -4.12683e-07 0.00110231 -0.8375 -4.23287e-07 0.00110245
-0.83125 -4.34138e-07 0.00110259 -0.825 -4.44998e-07 0.00110273 -0.81875 -4.55865e-07 0.00110287 -0.8125
-4.66739e-07 0.00110301 -0.80625 -4.66294e-07 0.00110315 -0.8 -4.5764e-07 0.00110329 -0.79375 -4.4898e-07
0.00110342 -0.7875 -4.40313e-07 0.00110356 -0.78125 -4.3164e-07 0.0011037 -0.775 -4.22696e-07 0.00110384
-0.76875 -4.14021e-07 0.00110398 -0.7625 -4.05341e-07 0.00110412 -0.75625 -3.96653e-07 0.00110425 -0.75
-3.87959e-07 0.00110439 -0.74375 -3.75411e-07 0.00110453 -0.7375 -3.64225e-07 0.00110464 -0.73125 -3.5303e-07
0.00110475 -0.725 -3.41827e-07 0.00110487 -0.71875 -3.30614e-07 0.00110498 -0.7125 -3.19169e-07 0.0011051
-0.70625 -3.0795e-07 0.00110521 -0.7 -2.96721e-07 0.00110533 -0.69375 -2.85484e-07 0.00110544 -0.6875
-2.74237e-07 0.00110556 -0.68125 -2.65822e-07 0.00110564 -0.675 -2.55433e-07 0.00110567 -0.66875 -2.45036e-07
0.0011057 -0.6625 -2.34631e-07 0.00110573 -0.65625 -2.24218e-07 0.00110576 -0.65 -2.13628e-07 0.00110579
-0.64375 -2.03211e-07 0.00110582 -0.6375 -1.92785e-07 0.00110585 -0.63125 -1.8235e-07 0.00110588 -0.625
-1.71907e-07 0.00110591 -0.61875 -1.54065e-07 0.00110587 -0.6125 -1.30566e-07 0.00110575 -0.60625 -1.07048e-07
0.00110562 -0.6 -8.35124e-08 0.0011055 -0.59375 -5.9958e-08 0.00110538 -0.590577 -4.79649e-08 0.00110531
-0.587405 -3.59968e-08 0.00110525 -0.584233 -2.40233e-08 0.00110519 -0.58106 -1.20444e-08 0.00110513 -0.57787
7.14217e-12 0.00110506 -0.574796 1.16243e-08 0.001105 -0.571722 2.32467e-08 0.00110494 -0.568648 3.48745e-08
0.00110488 -0.565574 4.65076e-08 0.00110482 -0.5625 5.81461e-08 0.00110476 -0.55625 7.9852e-08 0.00110454
-0.55 9.82868e-08 0.00110419 -0.54375 1.16738e-07 0.00110383 -0.5375 1.35205e-07 0.00110348 -0.53125
1.53689e-07 0.00110313 -0.525 1.72004e-07 0.00110278 -0.51875 1.90563e-07 0.00110242 -0.5125 2.09143e-07
0.00110207 -0.50625 2.27744e-07 0.00110172 -0.5 2.46366e-07 0.00110137 -0.49375 2.63431e-07 0.00110083
-0.4875 2.76321e-07 0.00110002 -0.48125 2.89225e-07 0.00109921 -0.475 3.02142e-07 0.0010984 -0.46875
3.15073e-07 0.00109759 -0.4625 3.27457e-07 0.00109678 -0.45625 3.40552e-07 0.00109598 -0.45 3.53662e-07
0.00109517 -0.44375 3.66788e-07 0.00109437 -0.4375 3.7993e-07 0.00109356 -0.431249 3.87536e-07 0.00109237
-0.424999 3.9098e-07 0.00109061 -0.418749 3.94408e-07 0.00108885 -0.412499 3.97818e-07 0.0010871 -0.406249
4.01212e-07 0.00108534 -0.399998 4.03596e-07 0.00108359 -0.393747 4.07188e-07 0.00108185 -0.387496 4.10687e-07
0.0010801 -0.381246 4.14094e-07 0.00107836 -0.374995 4.17408e-07 0.00107662 -0.371657 4.1647e-07 0.00107525
-0.368319 4.07797e-07 0.00107316 -0.364982 3.99006e-07 0.00107108 -0.361644 3.90096e-07 0.001069 -0.360386
3.86694e-07 0.00106822 -0.357056 3.77639e-07 0.00106615 -0.353725 3.68467e-07 0.00106409 -0.350395 3.59176e-07
0.00106203 -0.347064 3.49767e-07 0.00105998 -0.343734 3.40238e-07 0.00105793 -0.337478 3.23396e-07 0.00105408
-0.331222 3.035e-07 0.00105025 -0.324967 2.82272e-07 0.00104643 -0.318711 2.59703e-07 0.00104263 -0.312455
2.35785e-07 0.00103884 -0.306193 1.83718e-07 0.00103298 -0.299931 1.01427e-07 0.00102392 -0.293669 1.57173e-08
0.00101494 -0.287406 -7.34477e-08 0.00100604 -0.281144 -1.66106e-07 0.000997225 -0.274873 -2.29556e-07 0.000988466
-0.268602 -3.46761e-07 0.000979772 -0.262332 -4.71848e-07 0.000971152 -0.256061 -6.04929e-07 0.000962607 -0.24979
-7.46115e-07 0.000954136 -0.243518 -9.43027e-07 0.00094125 -0.237246 -1.13257e-06 0.000923118 -0.230975 -1.34117e-06
0.000905343 -0.224703 -1.5692e-06 0.000887918 -0.218431 -1.81708e-06 0.000870836 -0.215291 -1.98339e-06 0.000862429
-0.21215 -2.2649e-06 0.000852612 -0.20901 -2.57117e-06 0.000842902 -0.205869 -2.90275e-06 0.000833298 -0.202729
-3.26016e-06 0.0008238 -0.19959 -3.26299e-06 0.000814478 -0.196451 -3.67843e-06 0.000805176 -0.193312 -4.12174e-06
0.000795973 -0.190173 -4.59354e-06 0.00078687 -0.187034 -5.09446e-06 0.000777864 -0.183908 -5.49766e-06 0.000767177
-0.180782 -6.05082e-06 0.000754045 -0.177656 -6.6012e-06 0.00074114 -0.17453 -7.14873e-06 0.000728457 -0.171404
-7.69332e-06 0.000715993 -0.168295 -7.66068e-06 0.000703817 -0.165187 -8.17302e-06 0.000691802 -0.162078 -8.60654e-06
0.000679999 -0.15897 -8.95913e-06 0.000668406 -0.155862 -9.22862e-06 0.000657018 -0.153819 -9.31819e-06 0.000646827
-0.151775 -9.33616e-06 0.000633858 -0.149732 -9.32651e-06 0.000621142 -0.147689 -9.28863e-06 0.000608674 -0.146257
-9.24188e-06 0.000600106 -0.145065 -9.1909e-06 0.000593068 -0.143873 -9.12972e-06 0.000586117 -0.14268 -9.05821e-06
0.000579252 -0.141488 -8.97624e-06 0.000572472 -0.140296 -8.88368e-06 0.000565776 -0.137178 -8.75804e-06 0.000548433
-0.13406 -8.46373e-06 0.000531636 -0.130943 -8.1696e-06 0.000515357 -0.127825 -7.87555e-06 0.00049958 -0.124707
-7.58146e-06 0.00048429 -0.124163 -7.50441e-06 0.000481205 -0.123618 -7.46536e-06 0.000481162 -0.123074 -7.43638e-06
0.000481131 -0.122529 -7.41756e-06 0.00048111 -0.122079 -7.4105e-06 0.000481102 -0.119432 -7.4105e-06 0.000481102
-0.116784 -7.64496e-06 0.000480831 -0.114136 -8.12368e-06 0.000480278 -0.111488 -8.85684e-06 0.00047943 -0.108841
-9.85488e-06 0.000478277 -0.105632 -9.85488e-06 0.000478277 -0.102423 -1.35337e-05 0.000475089 -0.0992143 -1.86427e-05
0.000470661 -0.0960054 -2.5301e-05 0.00046489 -0.0927936 -3.36443e-05 0.000457659 -0.0897809 -3.36443e-05 0.000457659
-0.0867682 -5.27172e-05 0.000446947 -0.0837557 -7.9755e-05 0.000431762 -0.0807433 -0.000117944 0.000410313 -0.0775358
-0.000175812 0.000377813 -1.001 1e-07 0.0537316 -1.0008 8.20391e-08 0.0537317 -1.0006 6.40578e-08
0.0537318 -1.0004 4.60561e-08 0.0537318 -1.0002 2.80341e-08 0.0537319 -1 9.99162e-09 0.053732
-0.999978 7.99329e-09 0.053732 -0.999956 5.99462e-09 0.053732 -0.999934 3.99558e-09 0.053732 -0.999911
1.99618e-09 0.053732 -0.999889 3.1185e-28 0.0537321 -0.993662 -5.62973e-07 0.0537347 -0.987434 -1.15467e-06
0.0537375 -0.981206 -1.77628e-06 0.0537404 -0.974978 -2.42856e-06 0.0537435 -0.96875 -3.11156e-06 0.0537468
-0.9625 -3.82709e-06 0.0537503 -0.95625 -4.57133e-06 0.0537542 -0.95 -5.34376e-06 0.0537583 -0.94375
-6.14443e-06 0.0537628 -0.9375 -6.97756e-06 0.0537675 -0.93125 -7.84801e-06 0.0537723 -0.925 -8.72678e-06
0.0537773 -0.91875 -9.59912e-06 0.0537824 -0.9125 -1.04563e-05 0.0537878 -0.90625 -1.12982e-05 0.0537934
-0.9 -1.21232e-05 0.0537992 -0.89375 -1.28929e-05 0.0538051 -0.8875 -1.36053e-05 0.053811 -0.88125
-1.42602e-05 0.0538171 -0.875 -1.48679e-05 0.0538233 -0.86875 -1.54416e-05 0.0538296 -0.8625 -1.59581e-05
0.053836 -0.85625 -1.64071e-05 0.0538424 -0.85 -1.6784e-05 0.0538488 -0.84375 -1.70885e-05 0.0538551
-0.8375 -1.73184e-05 0.0538615 -0.83125 -1.74908e-05 0.0538678 -0.825 -1.76034e-05 0.0538739 -0.81875
-1.76561e-05 0.0538799 -0.8125 -1.76465e-05 0.0538859 -0.80625 -1.75687e-05 0.0538918 -0.8 -1.74443e-05
0.0538978 -0.79375 -1.72796e-05 0.0539036 -0.7875 -1.70798e-05 0.0539093 -0.78125 -1.68448e-05 0.0539148
-0.775 -1.65733e-05 0.0539201 -0.76875 -1.62946e-05 0.0539252 -0.7625 -1.60064e-05 0.0539301 -0.75625
-1.57089e-05 0.0539347 -0.75 -1.5397e-05 0.0539391 -0.74375 -1.50608e-05 0.0539435 -0.7375 -1.47337e-05
0.0539479 -0.73125 -1.44165e-05 0.0539519 -0.725 -1.41109e-05 0.0539556 -0.71875 -1.38168e-05 0.053959
-0.7125 -1.35332e-05 0.053962 -0.70625 -1.32607e-05 0.0539646 -0.7 -1.2998e-05 0.0539668 -0.69375
-1.27453e-05 0.0539685 -0.6875 -1.25049e-05 0.0539698 -0.68125 -1.22809e-05 0.0539709 -0.675 -1.20457e-05
0.0539717 -0.66875 -1.17943e-05 0.0539721 -0.6625 -1.15246e-05 0.0539719 -0.65625 -1.12367e-05 0.0539711
-0.65 -1.09303e-05 0.0539698 -0.64375 -1.05853e-05 0.0539677 -0.6375 -1.02004e-05 0.053965 -0.63125
-9.77566e-06 0.0539616 -0.625 -9.30916e-06 0.0539577 -0.61875 -8.79793e-06 0.0539533 -0.6125 -8.25273e-06
0.0539484 -0.60625 -7.67774e-06 0.0539428 -0.6 -7.07579e-06 0.0539363 -0.59375 -6.44682e-06 0.053929
-0.5875 -5.79103e-06 0.0539208 -0.58125 -5.14434e-06 0.0539114 -0.575 -4.50627e-06 0.0539009 -0.56875
-3.87685e-06 0.0538893 -0.5625 -3.25684e-06 0.0538767 -0.55625 -2.64778e-06 0.0538635 -0.55 -2.05771e-06
0.0538495 -0.54375 -1.48685e-06 0.0538343 -0.5375 -9.35607e-07 0.0538175 -0.53125 -4.04034e-07 0.0537992
-0.530263 -3.23196e-07 0.0537961 -0.529276 -2.428e-07 0.0537929 -0.528288 -1.62833e-07 0.0537897 -0.527301
-8.3297e-08 0.0537864 -0.52626 1.53926e-10 0.0537828 -0.521008 4.18587e-07 0.0537647 -0.515756 8.24813e-07
0.053745 -0.510504 1.21879e-06 0.0537238 -0.505252 1.60049e-06 0.0537011 -0.5 1.97412e-06 0.0536773
-0.49375 2.4118e-06 0.053648 -0.4875 2.82547e-06 0.053617 -0.48125 3.21306e-06 0.0535836 -0.475
3.57339e-06 0.053547 -0.46875 3.90636e-06 0.0535072 -0.4625 4.2127e-06 0.0534644 -0.456249 4.48474e-06
0.0534169 -0.449999 4.72127e-06 0.0533649 -0.443749 4.92209e-06 0.0533081 -0.437499 5.08784e-06 0.0532478
[...]
POINT_DATA 10078
FIELD attributes 3
age 1 10078 float
0 1.00088e-05 2.00175e-05 3.00263e-05 4.0035e-05 5.00438e-05 0.000362817 0.000675607 0.000988396 0.00130119 0.00161398
0.00164382 0.00167365 0.00170349 0.00173333 0.00176319 0.00204613 0.00232908 0.00261203 0.00289498 0.00317792
0.00349073 0.00380356 0.00411639 0.00442922 0.00474205 0.00505488 0.00536771 0.00568054 0.00599337 0.0063062
0.00661906 0.00693194 0.00724482 0.0075577 0.00787059 0.00818347 0.00849635 0.00880923 0.00912212 0.009435
0.00974791 0.0100609 0.0103738 0.0106867 0.0109997 0.0113126 0.0116256 0.0119385 0.0122514 0.0125644
0.0128774 0.0131904 0.0135034 0.0138164 0.0141294 0.0144424 0.0147555 0.0150685 0.0153815 0.0156945
0.0160076 0.0163206 0.0166337 0.0169468 0.0172599 0.017573 0.0178861 0.0181991 0.0185122 0.0188253
0.0191384 0.0194516 0.0197648 0.0200779 0.0203911 0.0205501 0.020709 0.020868 0.0210269 0.0211868
0.0213408 0.0214949 0.0216489 0.0218029 0.0219569 0.0222701 0.0225834 0.0228967 0.0232099 0.0235232
0.0238364 0.0241497 0.024463 0.0247762 0.0250895 0.0254028 0.0257162 0.0260296 0.026343 0.0266563
0.0269697 0.0272831 0.0275965 0.0279099 0.0282233 0.0285367 0.0288503 0.0291638 0.0294774 0.0297909
0.0301045 0.0304181 0.0307316 0.0310452 0.0313588 0.0315262 0.0316938 0.0318613 0.0320289 0.032092
0.0322592 0.0324264 0.0325936 0.0327607 0.0329279 0.0332419 0.0335559 0.0338699 0.0341839 0.0344979
0.0348123 0.0351269 0.0354414 0.035756 0.0360705 0.0363854 0.0367004 0.0370153 0.0373302 0.0376451
0.0379602 0.0382766 0.0385929 0.0389092 0.0392254 0.0393837 0.039542 0.0397004 0.0398587 0.0400171
0.0401753 0.0403335 0.0404917 0.0406499 0.0408081 0.0409656 0.0411231 0.0412807 0.0414382 0.0415957
0.0417522 0.0419087 0.0420653 0.0422218 0.0423782 0.0424811 0.0425841 0.042687 0.0427899 0.042862
0.042922 0.0429821 0.0430421 0.0431021 0.0431621 0.0433191 0.043476 0.0436328 0.0437897 0.0439465
0.0439739 0.0440019 0.0440298 0.0440578 0.0440808 0.0442167 0.0443526 0.0444885 0.0446243 0.0447601
0.0449248 0.0450893 0.0452538 0.0454182 0.0455827 0.0457384 0.0459088 0.0460969 0.0463066 0.0465586
0 1.026e-05 2.05209e-05 3.07825e-05 4.10449e-05 5.13081e-05 5.24436e-05 5.35792e-05 5.47147e-05 5.58502e-05
5.69837e-05 0.000376601 0.000696313 0.00101614 0.00133608 0.00165614 0.00197747 0.00229891 0.00262048 0.00294218
0.00326399 0.00358592 0.00390798 0.00423016 0.00455249 0.00487494 0.00519754 0.00552029 0.0058432 0.00616627
0.00648949 0.00681287 0.00713642 0.00746013 0.00778401 0.00810806 0.00843228 0.00875666 0.00908121 0.00940592
0.0097308 0.0100559 0.0103811 0.0107065 0.0110321 0.0113579 0.0116838 0.0120099 0.0123363 0.0126629
0.0129897 0.0133167 0.0136439 0.0139714 0.0142991 0.014627 0.0149551 0.0152834 0.0156119 0.0159406
0.0162696 0.0165987 0.016928 0.0172575 0.0175872 0.0179171 0.0182472 0.0185775 0.018908 0.0192387
0.0195696 0.0199008 0.0202322 0.0205639 0.0208959 0.0212281 0.0215606 0.0218934 0.0222265 0.0225599
0.0228936 0.0232276 0.0235619 0.0238965 0.0242314 0.0245666 0.0246196 0.0246726 0.0247256 0.0247787
0.0248346 0.0251169 0.0253994 0.0256822 0.0259652 0.0262486 0.0265861 0.0269241 0.0272626 0.0276016
0.027941 0.028281 0.0286215 0.0289626 0.0293043 0.0296465 0.0299893 0.0303326 0.0306766 0.0310212
0.0313666 0.0317127 0.0320596 0.0324075 0.0327562 0.0331057 0.0334561 0.0338074 0.0341596 0.0345129
0.0347542 0.0347769 0.0347997 0.0348224 0.0348451 0.0348679 0.035224 0.0355816 0.0359405 0.0363009
0.0366629 0.037026 0.0373902 0.0377552 0.038122 0.0384914 0.0388645 0.039239 0.0396149 0.039992
0.0403731 0.0405638 0.0407548 0.0409463 0.0411382 0.0413316 0.0415249 0.0417182 0.0419116 0.0421053
0.0422999 0.0424942 0.042689 0.0428841 0.0430792 0.0432766 0.0434715 0.0436663 0.0438612 0.044056
0.0442531 0.0443705 0.0444964 0.0446198 0.0447405 0.0448649 0.0449413 0.0450176 0.0450941 0.0451705
0.0452472 0.045435 0.0456228 0.0458106 0.0459986 0.046189 0.0463992 0.0466095 0.0468235 0.0470653
0.0473429 0.0476145 0.0479022 0.048216 0.048515 0.0488027 0.0490367 0.0492803 0.0495422 0.0498252
0.05011 0.0503375 0.050597 0.0509157 0.0513289 0.0518329 0.0523419 0.0528073 0.0533033 0.0538973
0.0579113 0.0582954 0.0586926 0.0590693 0.0594313 0.0749022 0 7.44471e-06 1.48895e-05 2.23343e-05
2.97791e-05 3.72e-05 4.00469e-05 4.28939e-05 4.57409e-05 4.85878e-05 5.14348e-05 0.000372911 0.000694509 0.00101623
0.00133807 0.00166006 0.0019822 0.00230447 0.00262688 0.00294942 0.0032721 0.00359492 0.00391787 0.00424095
0.00456417 0.00488751 0.00521096 0.00553456 0.00585831 0.00618221 0.00650626 0.00683047 0.00715483 0.00747936
0.00780405 0.00812889 0.0084539 0.00877905 0.00910435 0.00942981 0.00975542 0.0100812 0.0104071 0.0107332
0.0110595 0.0113859 0.0117125 0.0120393 0.0123663 0.0126935 0.0130208 0.0133484 0.0136762 0.0140041
0.0143323 0.0146607 0.0149893 0.015318 0.015647 0.0159761 0.0163054 0.0166349 0.0169646 0.0172945
0.0176245 0.0179548 0.0182852 0.0186159 0.0189468 0.0192779 0.0196092 0.0199408 0.0202726 0.0206047
0.020937 0.0212697 0.0216026 0.0219359 0.0222695 0.0226034 0.0229376 0.0232721 0.023607 0.0239422
0.0242777 0.0246137 0.0249501 0.0252869 0.0256243 0.0259621 0.0263004 0.0266392 0.0269785 0.0273183
0.0276588 0.0279999 0.0283417 0.0286844 0.0290279 0.0293721 0.029717 0.0300627 0.0304093 0.0307568
0.0311051 0.0314547 0.0318056 0.0321582 0.0325124 0.0328678 0.0332247 0.0335831 0.0339433 0.0343051
0.0346687 0.035035 0.0354043 0.0357774 0.036153 0.0365306 0.0369124 0.0372958 0.0376824 0.0380722
0.0384651 0.0388669 0.0389628 0.039059 0.0391554 0.039252 0.0393266 0.0394395 0.0395527 0.0396661
0.0397799 0.0398951 0.0401057 0.0403177 0.0405311 0.0407458 0.0409691 0.0411886 0.0414086 0.0416289
0.0418496 0.0420815 0.0422338 0.0424002 0.0425696 0.0427321 0.0428705 0.0429502 0.04303 0.0431098
0.0431896 0.0432713 0.0435159 0.0438005 0.0441567 0.0445785 0.0449269 0.0451357 0.0453364 0.0455479
0.0457711 0.0459632 0.0462079 0.0464673 0.0467717 0.0471549 0.0475033 0.0482114 0.0487267 0.0492614
0.0498055 0.051102 0.051337 0.0515865 0.0518519 0.0521347 0.0524541 0.0533159 0.0538149 0.0543834
0.055044 0.058054 0 7.26524e-06 1.45305e-05 2.17959e-05 2.90613e-05 3.63093e-05 3.93521e-05 4.23949e-05
4.54378e-05 4.84807e-05 5.15235e-05 0.000373557 0.000695704 0.00101797 0.00134034 0.00166283 0.00198544 0.00230817
0.00263102 0.00295399 0.00327708 0.0036003 0.00392363 0.00424708 0.00457064 0.00489433 0.00521813 0.00554208
0.00586616 0.00619039 0.00651475 0.00683926 0.00716392 0.00748873 0.00781369 0.0081388 0.00846406 0.00878948
0.00911505 0.00944077 0.00976664 0.0100927 0.0104188 0.0107452 0.0110717 0.0113984 0.0117253 0.0120523
0.0123795 0.012707 0.0130346 0.0133624 0.0136904 0.0140187 0.0143471 0.0146757 0.0150046 0.0153336
0.0156628 0.0159923 0.0163219 0.0166517 0.0169818 0.017312 0.0176424 0.017973 0.0183039 0.018635
0.0189663 0.0192979 0.0196297 0.0199618 0.0202942 0.0206269 0.0209599 0.0212932 0.0216268 0.0219608
0.0222952 0.02263 0.0229651 0.0233006 0.0236365 0.0239729 0.0243097 0.0246469 0.0249847 0.0253231
0.025662 0.0260016 0.0263418 0.0266825 0.0270241 0.0273665 0.0277096 0.0280536 0.0283985 0.0287445
0.0290916 0.0294397 0.029789 0.0301396 0.0304916 0.0308452 0.0312003 0.0315573 0.0317178 0.0318789
0.0320405 0.0322025 0.0322984 0.0325128 0.032728 0.0329441 0.033161 0.033379 0.0337512 0.0341271
0.0345068 0.0348903 0.0352792 0.0356733 0.0360727 0.0364787 0.0368916 0.0373172 0.0375347 0.0377541
0.0379756 0.0381993 0.0384297 0.0386618 0.0388987 0.0391391 0.0393819 0.0396385 0.0396943 0.0397504
0.0398067 0.0398632 0.0399086 0.0401058 0.0403056 0.040508 0.040713 0.0409396 0.041209 0.0414799
0.0417521 0.0420249 0.0423562 0.0424543 0.0425507 0.0426507 0.0427547 0.0428517 0.0432858 0.0437823
0.0443804 0.0451217 0.0459805 0.0462603 0.0465531 0.046858 0.0471732 0.0475266 0.0481535 0.0485427
0.0488719 0.0492318 0.0514192 0 6.79274e-06 1.35855e-05 2.03783e-05 2.71712e-05 3.39565e-05 3.74757e-05
4.09949e-05 4.45142e-05 4.80335e-05 5.15527e-05 0.000373766 0.000696094 0.00101854 0.0013411 0.00166377 0.00198658
0.0023095 0.00263255 0.00295572 0.00327901 0.00360243 0.00392596 0.00424961 0.00457338 0.00489727 0.00522128
0.00554544 0.00586973 0.00619416 0.00651874 0.00684345 0.00716831 0.00749333 0.00781849 0.0081438 0.00846927
0.00879489 0.00912066 0.00944658 0.00977265 0.0100989 0.0104253 0.0107518 0.0110786 0.0114055 0.0117325
0.0120598 0.0123873 0.0127149 0.0130428 0.0133708 0.0136991 0.0140276 0.0143563 0.0146852 0.0150143
0.0153436 0.0156731 0.0160029 0.0163328 0.016663 0.0169933 0.0173239 0.0176548 0.0179858 0.0183171
0.0186486 0.0189804 0.0193125 0.0196448 0.0199775 0.0203104 0.0206438 0.0209775 0.0213115 0.0216459
0.0219807 0.0223159 0.0226515 0.0229876 0.0233241 0.0236611 0.0239987 0.0243369 0.0246756 0.0250148
0.0253546 0.0256953 0.0260367 0.0263788 0.0267218 0.0270658 0.0274108 0.0277569 0.0281041 0.0284522
0.0288017 0.0291527 0.0295051 0.0298592 0.030215 0.0305732 0.0309338 0.0312967 0.0316621 0.0320299
0.0324008 0.0327752 0.0331535 0.0335363 0.0339231 0.0343174 0.0347194 0.0351295 0.0355496 0.035764
0.0359811 0.036201 0.0364238 0.0366512 0.0367705 0.0368912 0.0370131 0.0371364 0.0372109 0.0373391
0.0374687 0.0375998 0.0377322 0.0378679 0.038126 0.0383923 0.0386673 0.038951 0.0392599 0.0395735
0.039901 0.0402421 0.040602 0.0410356 0.0412356 0.0414427 0.0416719 0.0419272 0.0421389 0.0425338
0.0429911 0.0435099 0.0441068 0.0462674 0 7.10576e-06 1.42116e-05 2.13174e-05 2.84233e-05 3.55236e-05
3.87317e-05 4.19399e-05 4.51481e-05 4.83563e-05 5.15645e-05 0.000373851 0.000696246 0.00101875 0.00134138 0.00166416
0.00198707 0.0023101 0.00263326 0.00295653 0.00327993 0.00360344 0.00392707 0.00425082 0.00457468 0.00489866
0.00522276 0.00554699 0.00587137 0.00619588 0.00652054 0.00684534 0.0071703 0.00749542 0.00782069 0.00814611
0.00847168 0.00879741 0.00912329 0.00944933 0.00977553 0.0101019 0.0104284 0.0107551 0.011082 0.0114091
0.0117363 0.0120638 0.0123914 0.0127193 0.0130473 0.0133756 0.0137041 0.0140328 0.0143617 0.0146909
0.0150202 0.0153498 0.0156796 0.0160096 0.0163398 0.0166703 0.0170009 0.0173319 0.017663 0.0179945
0.0183261 0.018658 0.0189902 0.0193227 0.0196556 0.0199887 0.0203222 0.020656 0.0209903 0.0213249
0.0216599 0.0219953 0.0223312 0.0226676 0.0230044 0.0233418 0.0236797 0.0240182 0.0243574 0.0246971
0.0250375 0.0253786 0.0257206 0.0260635 0.0264072 0.0267518 0.0270977 0.0274447 0.027793 0.0281424
0.0284932 0.0288458 0.0292001 0.0295561 0.0299141 0.0302745 0.0306379 0.0310043 0.0313735 0.0317457
0.0321223 0.0325035 0.0328895 0.0332803 0.0336768 0.0340824 0.0344989 0.0349272 0.0353697 0.0358263
0.0360626 0.0363045 0.0365523 0.0368064 0.0370672 0.037335 0.0376141 0.0379056 0.0382111 0.0385327
0.0388663 0.0392502 0.0397102 0.0402163 0.0407523 0.0410995 0.0415038 0.0420045 0.0426252 0.0442945
0 7.66494e-06 1.53299e-05 2.2995e-05 3.06601e-05 3.83258e-05 4.09736e-05 4.36214e-05 4.62692e-05 4.8917e-05
5.15648e-05 0.000373853 0.000696253 0.00101878 0.00134142 0.00166419 0.00198709 0.0023101 0.00263323 0.00295647
0.00327984 0.00360332 0.00392692 0.00425065 0.00457451 0.00489849 0.0052226 0.00554686 0.00587126 0.00619581
0.00652051 0.00684535 0.00717036 0.00749552 0.00782084 0.00814632 0.00847196 0.00879776 0.00912372 0.00944985
0.00977614 0.0101026 0.0104292 0.0107561 0.0110831 0.0114102 0.0117376 0.0120652 0.012393 0.012721
0.0130492 0.0133776 0.0137062 0.0140351 0.0143641 0.0146935 0.015023 0.0153527 0.0156827 0.0160129
0.0163434 0.016674 0.0170049 0.0173361 0.0176675 0.0179991 0.018331 0.0186632 0.0189957 0.0193284
0.0196615 0.0199949 0.0203287 0.0206629 0.0209975 0.0213324 0.0216678 0.0220036 0.0223399 0.0226767
0.023014 0.0233518 0.0236901 0.0240292 0.0243688 0.0247091 0.02505 0.0253918 0.0257344 0.026078
0.0264224 0.0267678 0.0271143 0.0274621 0.0278112 0.0281615 0.0285133 0.028867 0.0292226 0.02958
0.0299394 0.0303014 0.0306662 0.0310342 0.0314052 0.0317794 0.0321588 0.0325433 0.0329331 0.0333283
0.0337291 0.0341403 0.034563 0.0349991 0.0354479 0.0359103 0.0361539 0.0364037 0.0366606 0.0369258
0.0371995 0.0374898 0.0377947 0.0381154 0.0384537 0.0388114 0.0392451 0.0397619 0.0404251 0.0413491
0.0429724 0 8.32456e-06 1.66492e-05 2.49738e-05 3.32986e-05 4.16441e-05 4.363e-05 4.56158e-05 4.76017e-05
4.95876e-05 5.15734e-05 0.000373915 0.000696368 0.00101895 0.00134167 0.00166451 0.00198749 0.00231059 0.0026338
0.00295713 0.00328058 0.00360415 0.00392784 0.00425165 0.00457558 0.00489962 0.00522379 0.0055481 0.00587255
0.00619716 0.00652191 0.00684681 0.00717186 0.00749708 0.00782246 0.008148 0.0084737 0.00879957 0.00912559
0.00945178 0.00977813 0.0101047 0.0104314 0.0107582 0.0110853 0.0114126 0.01174 0.0120676 0.0123955
0.0127236 0.0130519 0.0133804 0.0137091 0.014038 0.0143672 0.0146966 0.0150262 0.0153561 0.0156861
0.0160164 0.0163469 0.0166777 0.0170086 0.0173399 0.0176714 0.0180031 0.018335 0.0186673 0.0189999
0.0193327 0.0196659 0.0199994 0.0203333 0.0206675 0.0210021 0.0213372 0.0214021 0.0214671 0.0215322
0.0215972 0.0216658 0.0219359 0.0222062 0.0224769 0.0227479 0.0230192 0.0233569 0.0236953 0.0240342
0.0243738 0.024714 0.0250547 0.0253963 0.0257387 0.0260819 0.026426 0.0267709 0.027117 0.0274643
0.0278127 0.0281622 0.028513 0.0288654 0.0292195 0.0295752 0.0299326 0.0301125 0.030293 0.0304743
0.0306561 0.0307042 0.0309136 0.0311239 0.031335 0.0315471 0.03176 0.0321335 0.0325112 0.0328931
0.0332793 0.0336702 0.0340665 0.0344728 0.0348877 0.0353114 0.0357455 0.0359684 0.0361953 0.0364265
0.036662 0.0369034 0.0369746 0.0370465 0.0371189 0.037192 0.0372422 0.0374301 0.0376221 0.0378184
0.0380192 0.0382286 0.038521 0.038826 0.0391455 0.0394802 0.039865 0.0402771 0.0407749 0.0414313
0.0423287 0.044048 0 8.87198e-06 1.7744e-05 2.66162e-05 3.54884e-05 4.43911e-05 4.58299e-05 4.72687e-05
4.87076e-05 5.01464e-05 5.15852e-05 0.000374003 0.000696528 0.00101916 0.00134191 0.00166478 0.00198778 0.00231089
0.00263412 0.00295746 0.00328091 0.00360449 0.00392818 0.004252 0.00457594 0.00490001 0.00522421 0.00554854
0.00587303 0.00619766 0.00652244 0.00684737 0.00717245 0.0074977 0.0078231 0.00814866 0.00847438 0.00880026
0.0091263 0.00945251 0.00977889 0.0101054 0.0104321 0.010759 0.0110861 0.0114134 0.0117408 0.0120685
0.0123964 0.0127245 0.0130527 0.0133812 0.01371 0.0140389 0.0143681 0.0146975 0.0150271 0.0153569
0.015687 0.0160173 0.0163478 0.0166785 0.0170094 0.0173406 0.0176721 0.0180037 0.0180736 0.0181435
0.0182134 0.0182834 0.0183489 0.0186121 0.0188754 0.0191388 0.0194025 0.0196663 0.0199997 0.0203334
0.0206675 0.021002 0.0213368 0.021672 0.0220076 0.0223436 0.0226801 0.023017 0.0233543 0.0236923
0.0240307 0.0243698 0.0247093 0.0250494 0.0253901 0.0257316 0.0260737 0.0264167 0.0267603 0.0271051
0.0274508 0.0277974 0.028145 0.0284936 0.0288434 0.0291944 0.0295467 0.0299005 0.030256 0.0306135
0.0309733 0.0313348 0.0316983 0.0320641 0.0324326 0.0328037 0.0331776 0.0335551 0.0337104 0.0338666
0.0340239 0.0341822 0.0342128 0.0344722 0.0347342 0.0349987 0.0352656 0.0355352 0.0357425 0.0359519
0.0361632 0.0363765 0.036593 0.0368127 0.037035 0.0372596 0.0374869 0.0377199 0.0379554 0.038196
0.0384412 0.0386896 0.0389476 0.0391233 0.0393018 0.0394831 0.0396671 0.0397365 0.0398498 0.0399639
0.040079 0.040195 0.0403172 0.0406322 0.0409538 0.0412937 0.0416616 0.0420953 0.042317 0.0425378
0.0427768 0.0430361 0.0432713 0.0437764 0.0443177 0.0449372 0.0456876 0.0480864 0 9.4946e-06
1.89893e-05 2.8484e-05 3.79789e-05 4.75214e-05 4.83351e-05 4.91489e-05 4.99626e-05 5.07763e-05 5.159e-05 0.000374037
0.00069659 0.00101925 0.00134202 0.00166489 0.0019879 0.00231102 0.00263425 0.0029576 0.00328107 0.00360464
0.00392835 0.00425217 0.00457611 0.00490017 0.00522436 0.00554869 0.00587317 0.0061978 0.00652257 0.00684749
0.00717257 0.00749781 0.00782321 0.00814876 0.00847448 0.00880035 0.00912639 0.0094526 0.00977896 0.0101055
0.0104322 0.0107591 0.0110862 0.0114134 0.0117409 0.0120685 0.0123963 0.0127244 0.0130527 0.0133811
0.0137098 0.0140387 0.0143679 0.0146972 0.0150268 0.0153565 0.0156865 0.0160167 0.0163471 0.0163922
0.0164373 0.0164825 0.0165276 0.0165697 0.0168559 0.0171423 0.0174289 0.0177156 0.0180025 0.0183342
0.0186663 0.0189985 0.0193311 0.019664 0.0199971 0.0203306 0.0206644 0.0209985 0.021333 0.0216679
0.0220031 0.0223387 0.0226747 0.0230111 0.0233479 0.0236852 0.0240229 0.0243612 0.0246999 0.0250391
0.0253788 0.0257191 0.02606 0.0264016 0.0267438 0.0270868 0.0274306 0.0277751 0.0281205 0.0284665
0.0288134 0.0291613 0.0295102 0.0298601 0.0302112 0.0305636 0.0309174 0.0312726 0.0316292 0.0319872
0.0323466 0.0327077 0.0330708 0.0334362 0.0338042 0.034175 0.0345487 0.0349253 0.035305 0.0356877
0.0360734 0.036462 0.0368552 0.0372555 0.0373698 0.0374845 0.0375996 0.037715 0.0378001 0.0378247
0.0378494 0.0378742 0.0378989 0.0379217 0.0379953 0.038069 0.0381428 0.0382168 0.0382912 0.0385038
0.0387177 0.0389331 0.03915 0.0393715 0.0395933 0.0398172 0.0400431 0.0402711 0.0405072 0.0407355
0.0409648 0.0411951 0.0414262 0.0416695 0.0417827 0.0419031 0.0420236 0.0421414 0.0422386 0.0423654
0.0424923 0.0426194 0.0427466 0.0428802 0.0431339 0.043431 0.0438017 0.0442163 0.0445635 0.0447608
0.0449574 0.0451663 0.0453891 0.0455963 0.0458545 0.0461357 0.0464823 0.0469348 0.0473155 0.0479244
0.0484479 0.0490144 0.0496159 0.0516165 0.0518315 0.0520572 0.0522947 0.0525438 0.0527763 0.0534789
0.0537712 0.0541056 0.0544959 0.0568247 0 1.03142e-05 2.06285e-05 3.09429e-05 4.12574e-05 5.15722e-05
5.15845e-05 5.15968e-05 5.1609e-05 5.16213e-05 5.16335e-05 0.000373957 0.000696389 0.00101893 0.00134158 0.00166434
0.00198723 0.00231024 0.00263336 0.0029566 0.00327996 0.00360343 0.00392703 0.00425076 0.00457461 0.00489858
0.00522268 0.00554693 0.00587132 0.00619587 0.00652056 0.00684541 0.00717042 0.00749559 0.00782092 0.00814641
0.00847206 0.00879788 0.00912386 0.00945 0.00977631 0.0101028 0.0104294 0.0107563 0.0110833 0.0114105
0.0117379 0.0120655 0.0123933 0.0127213 0.0130495 0.0133779 0.0137065 0.0140353 0.0143643 0.0146935
0.0146986 0.0147037 0.0147089 0.014714 0.0147191 0.0150434 0.0153679 0.0156926 0.0160175 0.0163426
0.016673 0.0170036 0.0173345 0.0176656 0.0179969 0.0183285 0.0186603 0.0189924 0.0193247 0.0196573
0.0199902 0.0203234 0.020657 0.0209908 0.021325 0.0216595 0.0219943 0.0223295 0.022665 0.023001
0.0233372 0.0236739 0.024011 0.0243484 0.0246863 0.0250246 0.0253635 0.0257028 0.0260426 0.0263829
0.0267238 0.0270652 0.0274072 0.0277499 0.0280931 0.028437 0.0287816 0.029127 0.029473 0.0298197
0.0301672 0.0305156 0.0308647 0.0312148 0.0315658 0.0317438 0.0319221 0.0321007 0.0322796 0.0323863
0.0325759 0.0327659 0.0329561 0.0331467 0.0333376 0.0336952 0.0340543 0.0344147 0.0347765 0.0351401
0.0355053 0.035872 0.0362403 0.0366103 0.0369827 0.037357 0.0377334 0.0381118 0.0384923 0.0388772
0.0392612 0.0396487 0.0400395 0.040432 0.0408313 0.0410281 0.0412252 0.0414225 0.0416201 0.0418196
0.0419983 0.0421773 0.0423561 0.0425346 0.042655 0.0426878 0.0427206 0.0427533 0.0427861 0.042819
0.0430203 0.0432212 0.0434218 0.043622 0.0438271 0.0440314 0.0442347 0.044437 0.0446387 0.0448439
0.0449426 0.0450412 0.0451398 0.0452384 0.0453383 0.0454355 0.0455322 0.0456285 0.0457245 0.0458202
0.0458645 0.0459087 0.0459528 0.0459967 0.0460401 0.0460875 0.0461349 0.0461821 0.0462292 0.0462761
0.0463212 0.0463662 0.0464108 0.0464552 0.0464982 0.0465409 0.0465831 0.0466249 0.0466659 0.0467058
0.0467443 0.0467823 0.0468197 0.0468566 0.0468937 0.0469237 0.0469535 0.0469831 0.0470126 0.0470331
0.0470443 0.0470556 0.0470668 0.047078 0.0470893 0.0471299 0.0471707 0.047212 0.0472536 0.0472973
0.0473312 0.0473651 0.047399 0.0474331 0.0474656 0.0474773 0.047489 0.0475008 0.0475126 0.0475245
0.0475707 0.0476169 0.0476634 0.0477103 0.0477583 0.0477856 0.0478129 0.0478403 0.0478677 0.0478947
0.0479149 0.0479352 0.0479555 0.0479758 0.0479961 0.0480436 0.0480912 0.048139 0.0481869 0.0482344
0.0482631 0.0482918 0.0483204 0.0483491 0.0483783 0.0483973 0.0484163 0.0484353 0.0484543 0.0484732
0.0485202 0.0485671 0.0486141 0.0486612 0.0487079 0.0487485 0.0487891 0.0488298 0.0488707 0.0489128